 &FCI NORB=13,NELEC=10,MS2=0
  ORBSYM=1,1,4,1,3,1,4,4,1,3,1,4,1,
  ISYM=1 UHF=.FALSE.
 &END
  0.3506611201652435D+01   1   1   1   1
  0.2591874141541344D+00   2   1   1   1
  0.6735744675887481D+00   2   2   1   1
  0.5303837437463343D+00   3   3   1   1
  0.1474547195415450D+00   4   1   1   1
  0.9038576332884306D-01   4   2   1   1
  0.6233221116452022D+00   4   4   1   1
  0.6354430646863242D+00   5   5   1   1
 -0.1379415721250888D+00   6   1   1   1
 -0.1881331417790437D+00   6   2   1   1
  0.5834757306712272D-01   6   4   1   1
  0.4217305123509746D+00   6   6   1   1
  0.1695532436619371D+00   7   3   1   1
  0.4423842658677176D+00   7   7   1   1
 -0.1775066696516480D+00   8   3   1   1
 -0.1090972416619664D+00   8   7   1   1
  0.5490719001989370D+00   8   8   1   1
  0.9004998206043235D-01   9   1   1   1
 -0.5701351313558648D-02   9   2   1   1
  0.2821520817538031D+00   9   4   1   1
  0.9694583428390990D-01   9   6   1   1
  0.7554206590209618D+00   9   9   1   1
 -0.3416537119494596D+00  10   5   1   1
  0.8621176670615438D+00  10  10   1   1
  0.1904341894903008D+00  11   1   1   1
  0.1463323642918350D+00  11   2   1   1
  0.1473891124379671D+00  11   4   1   1
 -0.4062027608957391D-01  11   6   1   1
  0.1416123685147827D+00  11   9   1   1
  0.5544224388013609D+00  11  11   1   1
  0.1553088866560232D+00  12   3   1   1
  0.2365784282998218D+00  12   7   1   1
 -0.2297044283996786D+00  12   8   1   1
  0.7411341291654745D+00  12  12   1   1
  0.2367704742395593D+00  13   1   1   1
  0.2075413288480066D+00  13   2   1   1
 -0.2126483297377510D-02  13   4   1   1
 -0.2267846674160726D+00  13   6   1   1
 -0.1491260921821420D+00  13   9   1   1
  0.6834807315932316D-01  13  11   1   1
  0.7064358096666030D+00  13  13   1   1
  0.3138435152361067D-01   2   1   2   1
  0.4015725176278546D-02   2   2   2   1
  0.6451019815262971D-03   3   3   2   1
  0.1521089402013764D-01   4   1   2   1
  0.5568504011753436D-02   4   2   2   1
  0.7265521022326447D-02   4   4   2   1
  0.3770264029575642D-02   5   5   2   1
 -0.1817128949979357D-01   6   1   2   1
 -0.1953565033294659D-02   6   2   2   1
 -0.4188595254628702D-03   6   4   2   1
  0.1150983661732169D-02   6   6   2   1
  0.2369958081858587D-02   7   3   2   1
  0.2106365326807547D-02   7   7   2   1
 -0.2099140394035122D-02   8   3   2   1
 -0.2400622686204547D-02   8   7   2   1
  0.4444773116133610D-02   8   8   2   1
  0.5695134493196752D-02   9   1   2   1
  0.3038200193949664D-02   9   2   2   1
  0.7892204342699365D-02   9   4   2   1
  0.5048681428116359D-03   9   6   2   1
  0.1265039352891117D-01   9   9   2   1
 -0.6968969452096931D-02  10   5   2   1
  0.1350305797379390D-01  10  10   2   1
  0.2096659527926420D-01  11   1   2   1
  0.4381235837795990D-02  11   2   2   1
  0.5393348730730604D-02  11   4   2   1
 -0.1466984149335940D-02  11   6   2   1
  0.7203044782177144D-02  11   9   2   1
  0.4625117229916092D-02  11  11   2   1
  0.5069664475426615D-02  12   3   2   1
  0.4500105114806478D-02  12   7   2   1
 -0.7471154609111611D-02  12   8   2   1
  0.8911649249918840D-02  12  12   2   1
  0.3124308288295889D-01  13   1   2   1
  0.5090243732411112D-02  13   2   2   1
  0.6462913421847389D-03  13   4   2   1
 -0.3262101860506729D-02  13   6   2   1
 -0.2350333595756444D-02  13   9   2   1
  0.2946044261548622D-02  13  11   2   1
  0.5249197718358971D-02  13  13   2   1
  0.5233471506536039D+00   2   2   2   2
  0.4721655830439236D+00   3   3   2   2
  0.1012254156316844D-01   4   1   2   2
 -0.1989597982615136D-01   4   2   2   2
  0.4216211733184320D+00   4   4   2   2
  0.4498327489406314D+00   5   5   2   2
  0.1123111838229285D-02   6   1   2   2
 -0.9450637215690827D-01   6   2   2   2
  0.2500094526591451D-01   6   4   2   2
  0.3631553797574510D+00   6   6   2   2
  0.6106417755678883D-01   7   3   2   2
  0.3604399717443530D+00   7   7   2   2
 -0.9811442649797175D-01   8   3   2   2
 -0.3665595383453009D-01   8   7   2   2
  0.4091608981410562D+00   8   8   2   2
  0.1425959818829658D-01   9   1   2   2
 -0.2314147690388001D-01   9   2   2   2
  0.8874378492561376D-01   9   4   2   2
  0.4683989043819962D-01   9   6   2   2
  0.4349326452126047D+00   9   9   2   2
 -0.1120159082724599D+00  10   5   2   2
  0.4669499406237080D+00  10  10   2   2
  0.7247080592259497D-02  11   1   2   2
  0.5374091782525256D-01  11   2   2   2
  0.3316307420358354D-01  11   4   2   2
 -0.5359044012863967D-02  11   6   2   2
 -0.9059045603657050D-02  11   9   2   2
  0.4342820041926528D+00  11  11   2   2
 -0.1184831889864248D-01  12   3   2   2
  0.9238474655498857D-01  12   7   2   2
 -0.1962901024157584D-01  12   8   2   2
  0.5006258459072652D+00  12  12   2   2
 -0.2121908034169387D-02  13   1   2   2
  0.3203801473600357D-01  13   2   2   2
  0.2566629596444507D-01  13   4   2   2
 -0.9955195160759572D-01  13   6   2   2
 -0.3453214446380878D-01  13   9   2   2
 -0.1665258895277334D-01  13  11   2   2
  0.5202691106983274D+00  13  13   2   2
  0.6039047845438215D-02   3   1   3   1
 -0.9591560240155854D-02   3   2   3   1
 -0.1506917747462306D-02   4   3   3   1
  0.1642169295235280D-02   6   3   3   1
  0.5814566850391152D-02   7   1   3   1
 -0.5559543813362901D-02   7   2   3   1
 -0.4867072834796586D-02   7   4   3   1
  0.2650793059869372D-02   7   6   3   1
 -0.9840292030660648D-02   8   1   3   1
  0.5441107024657532D-02   8   2   3   1
  0.2972928787707137D-03   8   4   3   1
 -0.4394637868570815D-02   8   6   3   1
  0.1004246509168395D-03   9   3   3   1
 -0.9812733734997792D-03   9   7   3   1
  0.5440770093569249D-03   9   8   3   1
 -0.4753169480005726D-02  11   3   3   1
 -0.2996228979989843D-02  11   7   3   1
  0.6480560311267352D-02  11   8   3   1
  0.1349771613339440D-01  12   1   3   1
 -0.5047558426538111D-02  12   2   3   1
 -0.5589842259180945D-02  12   4   3   1
  0.2763350026083279D-02  12   6   3   1
 -0.4118355073547601D-02  12   9   3   1
 -0.4290913127429023D-02  12  11   3   1
 -0.1396655368122461D-02  13   3   3   1
 -0.3095085545636846D-02  13   7   3   1
  0.2928537184341033D-02  13   8   3   1
 -0.9141622012147448D-02  13  12   3   1
  0.1301178928199531D+00   3   2   3   2
 -0.3085244055603736D-01   4   3   3   2
  0.2128140058672105D-01   6   3   3   2
 -0.8778448596745966D-02   7   1   3   2
  0.2071031036034423D-01   7   2   3   2
  0.5183968472608054D-01   7   4   3   2
 -0.4731740518049987D-01   7   6   3   2
  0.1309447450447540D-01   8   1   3   2
 -0.3921325194881760D-01   8   2   3   2
  0.2473994914027497D-01   8   4   3   2
  0.5106490945391969D-01   8   6   3   2
 -0.2148757523482304D-01   9   3   3   2
 -0.1052117388977145D-01   9   7   3   2
  0.1189918675589765D-01   9   8   3   2
  0.5013982011776297D-01  11   3   3   2
 -0.9081142167744749D-03  11   7   3   2
 -0.7188048382775372D-01  11   8   3   2
 -0.1762346764382857D-01  12   1   3   2
 -0.2669936214829061D-01  12   2   3   2
  0.4824288016778128D-01  12   4   3   2
 -0.3288553392700400D-02  12   6   3   2
  0.4298042351213595D-01  12   9   3   2
 -0.2911088384127308D-01  12  11   3   2
 -0.5793422135458215D-01  13   3   3   2
  0.9181433518271671D-02  13   7   3   2
  0.3430957725231160D-01  13   8   3   2
  0.1251902172261388D+00  13  12   3   2
  0.4635763738780262D+00   3   3   3   3
  0.4532269790984696D-02   4   1   3   3
 -0.2669891568720036D-01   4   2   3   3
  0.3799292868029510D+00   4   4   3   3
  0.3887673709127484D+00   5   5   3   3
  0.1318679492187160D-02   6   1   3   3
 -0.5472284126792696D-01   6   2   3   3
  0.7093891893003079D-02   6   4   3   3
  0.3466713648136180D+00   6   6   3   3
  0.3845974158697307D-01   7   3   3   3
  0.3524062046418768D+00   7   7   3   3
 -0.8314318624522120D-01   8   3   3   3
 -0.3014891729611791D-01   8   7   3   3
  0.3914922751299020D+00   8   8   3   3
  0.6861235308427327D-02   9   1   3   3
 -0.2109979364948917D-01   9   2   3   3
  0.6855827847069786D-01   9   4   3   3
  0.3403956086396145D-01   9   6   3   3
  0.3812749317169390D+00   9   9   3   3
 -0.7577832130707070D-01  10   5   3   3
  0.3972286343218573D+00  10  10   3   3
  0.2637207744523600D-02  11   1   3   3
  0.5688830730256728D-01  11   2   3   3
  0.1541860945062602D-01  11   4   3   3
 -0.2154835505157437D-02  11   6   3   3
 -0.1640444243298512D-01  11   9   3   3
  0.4008211552527288D+00  11  11   3   3
 -0.3668108389638201D-01  12   3   3   3
  0.7255702761280231D-01  12   7   3   3
  0.6804004575978465D-02  12   8   3   3
  0.4801068935716862D+00  12  12   3   3
 -0.2056515946300437D-02  13   1   3   3
 -0.1017876420974616D-01  13   2   3   3
  0.3729367614019279D-01  13   4   3   3
 -0.6657484192057890D-01  13   6   3   3
 -0.6944437606618264D-02  13   9   3   3
 -0.3692282794950537D-01  13  11   3   3
  0.4815376767230239D+00  13  13   3   3
  0.1690757027190037D-01   4   1   4   1
 -0.5933470058114839D-02   4   2   4   1
 -0.5758881012148942D-02   4   4   4   1
  0.1784512496276240D-02   5   5   4   1
 -0.5164466849160484D-02   6   1   4   1
 -0.7501947555155561D-02   6   2   4   1
 -0.6300707956174859D-03   6   4   4   1
  0.6093284057049040D-02   6   6   4   1
 -0.3170342975043138D-03   7   3   4   1
  0.1677631034897658D-03   7   7   4   1
 -0.4250235289137507D-02   8   3   4   1
 -0.3057998375147649D-02   8   7   4   1
  0.4064764689136471D-02   8   8   4   1
  0.2093628815051830D-01   9   1   4   1
 -0.6218667627425023D-02   9   2   4   1
 -0.2250360185929285D-02   9   4   4   1
  0.4389418113171834D-02   9   6   4   1
  0.4788019612031213D-03   9   9   4   1
 -0.3549134057816112D-02  10   5   4   1
  0.6963785928474267D-02  10  10   4   1
  0.1610034426647179D-01  11   1   4   1
  0.1589125374760291D-02  11   2   4   1
 -0.2625178010776930D-02  11   4   4   1
 -0.1704722215649990D-02  11   6   4   1
 -0.6772934275421512D-02  11   9   4   1
  0.9998581281860288D-03  11  11   4   1
  0.9069917817698474D-05  12   3   4   1
  0.1063849021651660D-02  12   7   4   1
 -0.1921458278550032D-02  12   8   4   1
  0.6304972724983092D-02  12  12   4   1
  0.7062430818204577D-02  13   1   4   1
  0.8363230044898633D-02  13   2   4   1
 -0.1793599827408993D-03  13   4   4   1
 -0.7570372638900301D-02  13   6   4   1
 -0.6772153984799936D-02  13   9   4   1
  0.1877280725673568D-02  13  11   4   1
  0.1617191887785553D-01  13  13   4   1
  0.6439371683588116D-01   4   2   4   2
  0.6269828310226498D-01   4   4   4   2
  0.3846172806032022D-01   5   5   4   2
 -0.6327913829541105D-02   6   1   4   2
  0.5777451922033904D-02   6   2   4   2
  0.1939225035680450D-01   6   4   4   2
 -0.2110512973467230D-01   6   6   4   2
  0.3879963395537294D-01   7   3   4   2
  0.1042621200945577D-01   7   7   4   2
  0.1613322445348843D-01   8   3   4   2
  0.1287405532200110D-01   8   7   4   2
  0.1088949329864840D-01   8   8   4   2
 -0.1304036293648317D-01   9   1   4   2
  0.1694434068856770D-01   9   2   4   2
  0.2710195745376200D-01   9   4   4   2
 -0.1682613550711435D-01   9   6   4   2
  0.4369661279852269D-01   9   9   4   2
 -0.2287231807588162D-01  10   5   4   2
  0.4412030635411282D-01  10  10   4   2
 -0.1458119073740734D-02  11   1   4   2
  0.4578635201383189D-02  11   2   4   2
  0.1690490437965598D-01  11   4   4   2
 -0.7969819195896087D-02  11   6   4   2
  0.5832232672092816D-01  11   9   4   2
  0.3424587646708867D-02  11  11   4   2
  0.4524142416832559D-01  12   3   4   2
  0.2208167389427654D-01  12   7   4   2
 -0.4448338234146522D-01  12   8   4   2
 -0.9039849746844471D-02  12  12   4   2
  0.1098899328853011D-01  13   1   4   2
  0.2038892894616574D-01  13   2   4   2
 -0.1485368677187495D-01  13   4   4   2
 -0.4041814237161420D-02  13   6   4   2
 -0.1806663033591462D-02  13   9   4   2
  0.2578058717574221D-01  13  11   4   2
 -0.4279623565132125D-01  13  13   4   2
  0.3009652003988268D-01   4   3   4   3
 -0.1294511385827560D-01   6   3   4   3
 -0.1766334686220878D-02   7   1   4   3
  0.1679821950215172D-01   7   2   4   3
  0.5150606481292494D-03   7   4   4   3
  0.2460999704193172D-01   7   6   4   3
  0.2238125301962261D-02   8   1   4   3
  0.1339727551405084D-01   8   2   4   3
 -0.5835101377552205D-02   8   4   4   3
 -0.8000979971830184D-02   8   6   4   3
  0.1077837455292128D-01   9   3   4   3
  0.7620712399376423D-02   9   7   4   3
 -0.1612747681293862D-01   9   8   4   3
 -0.1526291691963690D-01  11   3   4   3
  0.5371521784474503D-02  11   7   4   3
  0.1009846739174974D-01  11   8   4   3
 -0.3712091970480331D-02  12   1   4   3
  0.2860706910910450D-01  12   2   4   3
 -0.4478519124142082D-02  12   4   4   3
 -0.6212183065364696D-02  12   6   4   3
 -0.3701471817076394D-02  12   9   4   3
  0.2859836832060702D-01  12  11   4   3
  0.2995948573146107D-01  13   3   4   3
  0.8862478730861656D-03  13   7   4   3
 -0.2432417454603421D-01  13   8   4   3
 -0.4217285706222271D-01  13  12   4   3
  0.4887987087040132D+00   4   4   4   4
  0.4279468476624410D+00   5   5   4   4
 -0.7283986974271859D-02   6   1   4   4
 -0.4784671822847644D-01   6   2   4   4
  0.4851171224809035D-01   6   4   4   4
  0.3088332067144291D+00   6   6   4   4
  0.7678766296837326D-01   7   3   4   4
  0.3488411066548318D+00   7   7   4   4
 -0.5212349526401595D-01   8   3   4   4
 -0.3888693985119401D-02   8   7   4   4
  0.3731425745031640D+00   8   8   4   4
 -0.1399034543703657D-01   9   1   4   4
  0.1138943225594247D-01   9   2   4   4
  0.9796871930490429D-01   9   4   4   4
  0.1268304236002221D-01   9   6   4   4
  0.4619888874122289D+00   9   9   4   4
 -0.9893065714689106D-01  10   5   4   4
  0.4429218556258285D+00  10  10   4   4
 -0.8139996590812945D-03  11   1   4   4
  0.4470236487466116D-01  11   2   4   4
  0.5199329731091741D-01  11   4   4   4
 -0.9647647691605143D-02  11   6   4   4
  0.7160385684131224D-01  11   9   4   4
  0.3959907914699198D+00  11  11   4   4
  0.2923996765602903D-01  12   3   4   4
  0.8884702138248918D-01  12   7   4   4
 -0.5320862693303696D-01  12   8   4   4
  0.4237393818956028D+00  12  12   4   4
  0.1304975769114491D-01  13   1   4   4
  0.2738510278506033D-01  13   2   4   4
  0.8051664211443862D-03  13   4   4   4
 -0.7188503063045183D-01  13   6   4   4
 -0.2084191674218152D-01  13   9   4   4
  0.6426180218674950D-02  13  11   4   4
  0.3946024079668910D+00  13  13   4   4
  0.1113178153652175D-01   5   1   5   1
 -0.1237299221332379D-01   5   2   5   1
 -0.7310186725090487D-02   5   4   5   1
  0.5771083947533444D-02   6   5   5   1
 -0.4086275720181318D-02   9   5   5   1
 -0.2182937833140265D-01  10   1   5   1
  0.1035676622008787D-01  10   2   5   1
  0.6455264237694765D-02  10   4   5   1
 -0.6701600763195415D-02  10   6   5   1
  0.4544282575908157D-02  10   9   5   1
 -0.1423846333230594D-02  11   5   5   1
  0.1009698345300157D-01  11  10   5   1
 -0.7304535535829052D-02  13   5   5   1
  0.1181702788518423D-01  13  10   5   1
  0.6953958565796038D-01   5   2   5   2
  0.3305193872104230D-01   5   4   5   2
 -0.2614017389235812D-01   6   5   5   2
  0.1730002111053375D-01   9   5   5   2
  0.2128391954237053D-01  10   1   5   2
 -0.2381549045438852D-01  10   2   5   2
 -0.1537079970947385D-01  10   4   5   2
  0.2591489659302288D-01  10   6   5   2
 -0.8551711475291228D-02  10   9   5   2
 -0.3050714758579397D-01  11   5   5   2
 -0.4952374719935446D-01  11  10   5   2
  0.1768753026627890D-01  13   5   5   2
 -0.4217510116554045D-01  13  10   5   2
  0.1537230904598443D-01   5   3   5   3
  0.9386141797901277D-02   7   5   5   3
  0.3140294395442278D-02   8   5   5   3
 -0.1499574237259950D-02  10   3   5   3
 -0.5567843640446869D-02  10   7   5   3
  0.1193420832829795D-01  10   8   5   3
  0.7056395648753725D-02  12   5   5   3
 -0.9100273071494826D-02  12  10   5   3
  0.3986567222511476D-01   5   4   5   4
 -0.6469931402896523D-02   6   5   5   4
  0.1050726163632727D-01   9   5   5   4
  0.1262247527160510D-01  10   1   5   4
 -0.1355096725678366D-01  10   2   5   4
 -0.1151319347634894D-01  10   4   5   4
  0.9825249119995081D-02  10   6   5   4
 -0.2367717641698691D-01  10   9   5   4
 -0.1000449129606907D-01  11   5   5   4
 -0.3012393265833301D-01  11  10   5   4
  0.4433769134055489D-02  13   5   5   4
 -0.1755140133192330D-01  13  10   5   4
  0.4814898298570706D+00   5   5   5   5
 -0.1455881553939817D-02   6   1   5   5
 -0.7901474826212099D-01   6   2   5   5
  0.3084733044771924D-01   6   4   5   5
  0.3181755800114212D+00   6   6   5   5
  0.7562818218682527D-01   7   3   5   5
  0.3338893054539332D+00   7   7   5   5
 -0.5641932902714109D-01   8   3   5   5
 -0.1717963223568172D-01   8   7   5   5
  0.3730054886987824D+00   8   8   5   5
  0.7939200859353149D-03   9   1   5   5
  0.3450937047192758D-02   9   2   5   5
  0.8683557232245104D-01   9   4   5   5
  0.2198248382751394D-01   9   6   5   5
  0.4248116348058739D+00   9   9   5   5
 -0.1096472585911360D+00  10   5   5   5
  0.4898954490855465D+00  10  10   5   5
  0.2779940108242390D-02  11   1   5   5
  0.2639092547636039D-01  11   2   5   5
  0.3742777590183957D-01  11   4   5   5
 -0.4950501188197731D-02  11   6   5   5
  0.3085708976530441D-01  11   9   5   5
  0.4129978584289871D+00  11  11   5   5
  0.3181600823937993D-01  12   3   5   5
  0.8834842406264432D-01  12   7   5   5
 -0.5342128826959234D-01  12   8   5   5
  0.4207055219541981D+00  12  12   5   5
  0.2711705997605794D-02  13   1   5   5
  0.5047136720635297D-01  13   2   5   5
  0.6224852534168351D-02  13   4   5   5
 -0.8608517391646525D-01  13   6   5   5
 -0.3203808904894588D-01  13   9   5   5
  0.1961943663000834D-01  13  11   5   5
  0.4206795205508836D+00  13  13   5   5
  0.1195111152858078D-01   6   1   6   1
 -0.1609303572412490D-02   6   2   6   1
  0.1675786841175151D-03   6   4   6   1
  0.1612310077491024D-02   6   6   6   1
 -0.1741581038305717D-02   7   3   6   1
 -0.1394227547328276D-02   7   7   6   1
 -0.1905112930848420D-03   8   3   6   1
  0.4904808486296368D-03   8   7   6   1
 -0.1529088757360233D-02   8   8   6   1
  0.3673038231669363D-02   9   1   6   1
 -0.4670146960963993D-02   9   2   6   1
 -0.6401240675670236D-02   9   4   6   1
  0.1470188909390446D-02   9   6   6   1
 -0.8576705408636495D-02   9   9   6   1
  0.3122746201876933D-02  10   5   6   1
 -0.6148137436037287D-02  10  10   6   1
 -0.9770139778972725D-02  11   1   6   1
 -0.2619513783850579D-02  11   2   6   1
 -0.4851930331791723D-02  11   4   6   1
  0.4325388416247661D-03  11   6   6   1
 -0.7754974576377640D-02  11   9   6   1
 -0.2815027815855447D-02  11  11   6   1
 -0.3479009229525952D-02  12   3   6   1
 -0.2690121636523150D-02  12   7   6   1
  0.4450162808942177D-02  12   8   6   1
 -0.3812070481200847D-02  12  12   6   1
 -0.2116217794579141D-01  13   1   6   1
 -0.2423734377025692D-03  13   2   6   1
 -0.6818258887631642D-03  13   4   6   1
 -0.7676820961995574D-03  13   6   6   1
 -0.1189793818216688D-02  13   9   6   1
 -0.1343443528339238D-02  13  11   6   1
  0.2726829992069616D-02  13  13   6   1
  0.5315141303469355D-01   6   2   6   2
 -0.1648262608018305D-01   6   4   6   2
 -0.3380967247806765D-01   6   6   6   2
 -0.3100802494669303D-01   7   3   6   2
 -0.2365119986552816D-01   7   7   6   2
  0.3734978444203638D-01   8   3   6   2
  0.1645413618263829D-01   8   7   6   2
 -0.4728346304337647D-01   8   8   6   2
 -0.1138767440714213D-01   9   1   6   2
  0.1325424249036190D-01   9   2   6   2
 -0.3119392728992993D-01   9   4   6   2
 -0.2072709807449495D-01   9   6   6   2
 -0.6711995881392936D-01   9   9   6   2
  0.4781613109843394D-01  10   5   6   2
 -0.9179855240933375D-01  10  10   6   2
 -0.5128064833621025D-02  11   1   6   2
 -0.1249670789323433D-01  11   2   6   2
 -0.1459937502805590D-01  11   4   6   2
  0.4758073770393306D-02  11   6   6   2
  0.2970858142769480D-02  11   9   6   2
 -0.5782021108657602D-01  11  11   6   2
 -0.1369774831791069D-01  12   3   6   2
 -0.3353402723843185D-01  12   7   6   2
  0.2217350673527279D-01  12   8   6   2
 -0.7181947656324443D-01  12  12   6   2
  0.3122021178427102D-02  13   1   6   2
 -0.3828818488618532D-01  13   2   6   2
  0.1147816843365776D-02  13   4   6   2
  0.4510861356040802D-01  13   6   6   2
  0.2820720227359638D-01  13   9   6   2
 -0.9284738691359762D-02  13  11   6   2
 -0.9066073585846712D-01  13  13   6   2
  0.3341718192136248D-01   6   3   6   3
  0.1477259971433617D-02   7   1   6   3
 -0.1325856930487372D-01   7   2   6   3
  0.2140545629915395D-01   7   4   6   3
 -0.2838569260166879D-01   7   6   6   3
 -0.2502699160181668D-02   8   1   6   3
  0.1125617275406812D-01   8   2   6   3
  0.3767545847934817D-02   8   4   6   3
  0.1784295098730601D-01   8   6   6   3
 -0.7785802406130721D-03   9   3   6   3
 -0.6274693435363882D-02   9   7   6   3
 -0.4285122272502191D-02   9   8   6   3
  0.5108118043764681D-02  11   3   6   3
 -0.1173260098744855D-01  11   7   6   3
 -0.1131100738960826D-01  11   8   6   3
  0.3181979293163832D-02  12   1   6   3
 -0.1212017657679354D-01  12   2   6   3
  0.2279478436873935D-02  12   4   6   3
  0.1180521526954009D-01  12   6   6   3
  0.1026899295018378D-01  12   9   6   3
 -0.1034661990432533D-01  12  11   6   3
 -0.1545891460910831D-01  13   3   6   3
 -0.1144208087287613D-01  13   7   6   3
  0.1726996859969566D-01  13   8   6   3
  0.2307100877823276D-01  13  12   6   3
  0.2450153715019210D-01   6   4   6   4
 -0.1272528698667008D-03   6   6   6   4
  0.2732376067982201D-01   7   3   6   4
  0.6845900713498221D-02   7   7   6   4
 -0.6171334358536167D-02   8   3   6   4
  0.9061958946316756D-02   8   7   6   4
  0.2459566535823213D-01   8   8   6   4
 -0.6301828432269328D-03   9   1   6   4
 -0.5128722482366030D-02   9   2   6   4
  0.1170953131498877D-01   9   4   6   4
 -0.3542656459629423D-02   9   6   6   4
  0.4622566300944758D-01   9   9   6   4
 -0.1392884387597304D-01  10   5   6   4
  0.3368995575910455D-01  10  10   6   4
 -0.4853149176219806D-03  11   1   6   4
  0.3642998187341415D-02  11   2   6   4
  0.6680204366635877D-02  11   4   6   4
 -0.6857002524107481D-02  11   6   6   4
  0.2138019079080586D-01  11   9   6   4
  0.1978437442762022D-01  11  11   6   4
  0.1059047009153352D-01  12   3   6   4
  0.1676619053487760D-01  12   7   6   4
 -0.1857604027370094D-01  12   8   6   4
  0.1577171086081725D-01  12  12   6   4
 -0.2494119415763336D-03  13   1   6   4
  0.1401307856223595D-01  13   2   6   4
 -0.7728922604383390D-02  13   4   6   4
 -0.1952790715368813D-01  13   6   6   4
 -0.1064676105360764D-01  13   9   6   4
  0.7565267515887264D-02  13  11   6   4
  0.1544717246027832D-01  13  13   6   4
  0.1639846238658065D-01   6   5   6   5
 -0.6128854412818184D-02   9   5   6   5
 -0.1002803142258316D-01  10   1   6   5
  0.1512252868450920D-01  10   2   6   5
  0.5737424594499073D-02  10   4   6   5
 -0.1013238354590316D-01  10   6   6   5
 -0.1724223190813673D-02  10   9   6   5
  0.8143601213034823D-02  11   5   6   5
  0.1416731559688569D-01  11  10   6   5
 -0.1239915207460473D-01  13   5   6   5
  0.2012503709936557D-01  13  10   6   5
  0.3142497633328105D+00   6   6   6   6
  0.7456556086152477D-02   7   3   6   6
  0.3029263031298717D+00   7   7   6   6
 -0.3713697706836050D-01   8   3   6   6
 -0.2326559794454841D-01   8   7   6   6
  0.3086702635794706D+00   8   8   6   6
  0.9487009802286134D-02   9   1   6   6
 -0.1179980295491524D-01   9   2   6   6
  0.3635007548363375D-01   9   4   6   6
  0.2679434485265508D-01   9   6   6   6
  0.3141188825270314D+00   9   9   6   6
 -0.5075730205145158D-01  10   5   6   6
  0.3261802360883513D+00  10  10   6   6
  0.4003717817207211D-02  11   1   6   6
  0.2357838653646179D-01  11   2   6   6
  0.1282803698841748D-01  11   4   6   6
  0.2906028206685285D-02  11   6   6   6
 -0.1153317347006548D-01  11   9   6   6
  0.3165531418443832D+00  11  11   6   6
 -0.6350177480181796D-02  12   3   6   6
  0.3075723949575071D-01  12   7   6   6
 -0.2397069080395990D-02  12   8   6   6
  0.3513698905408686D+00  12  12   6   6
 -0.3027444221827981D-02  13   1   6   6
  0.1726825905600746D-01  13   2   6   6
  0.9131264759019236D-02  13   4   6   6
 -0.3952860924466528D-01  13   6   6   6
 -0.1822710743394068D-01  13   9   6   6
 -0.9006469910502635D-02  13  11   6   6
  0.3688627657415406D+00  13  13   6   6
  0.5613786873095878D-02   7   1   7   1
 -0.5325131701862308D-02   7   2   7   1
 -0.4818077717445888D-02   7   4   7   1
  0.2321638847111673D-02   7   6   7   1
 -0.9483780018251191D-02   8   1   7   1
  0.4946847130300445D-02   8   2   7   1
  0.4655460609902691D-03   8   4   7   1
 -0.4005717573609711D-02   8   6   7   1
 -0.2047233499972555D-03   9   3   7   1
 -0.1171434435132603D-02   9   7   7   1
  0.8691919749295017D-03   9   8   7   1
 -0.4432995287618872D-02  11   3   7   1
 -0.2924781047161179D-02  11   7   7   1
  0.6100584079877201D-02  11   8   7   1
  0.1303646209237731D-01  12   1   7   1
 -0.4991883642223865D-02  12   2   7   1
 -0.5492464188957560D-02  12   4   7   1
  0.2582795595135648D-02  12   6   7   1
 -0.4202992003692131D-02  12   9   7   1
 -0.4381467064708249D-02  12  11   7   1
 -0.1423592054173632D-02  13   3   7   1
 -0.2880946172782006D-02  13   7   7   1
  0.2814427961587654D-02  13   8   7   1
 -0.8274314912113570D-02  13  12   7   1
  0.2799157725527673D-01   7   2   7   2
  0.1348225985002061D-01   7   4   7   2
  0.1135078092104902D-01   7   6   7   2
  0.7794164892467204D-02   8   1   7   2
 -0.8064307264810319D-02   8   2   7   2
  0.5659393578366190D-02   8   4   7   2
  0.1030538899791936D-01   8   6   7   2
 -0.1887205944239401D-02   9   3   7   2
  0.2531184047963431D-02   9   7   7   2
 -0.7054031492469737D-02   9   8   7   2
  0.5925188018749966D-02  11   3   7   2
  0.6711820223658077D-02  11   7   7   2
 -0.1786984581734670D-01  11   8   7   2
 -0.1087205598233739D-01  12   1   7   2
  0.1660496715752530D-01  12   2   7   2
  0.1329385095167979D-01  12   4   7   2
 -0.1114871473643259D-01  12   6   7   2
  0.9438903327966285D-02  12   9   7   2
  0.1459822903918981D-01  12  11   7   2
  0.7010312186392732D-02  13   3   7   2
  0.8028229252293472D-02  13   7   7   2
 -0.1247872388195910D-01  13   8   7   2
  0.8740170066667070D-02  13  12   7   2
  0.5883786042151180D-01   7   3   7   3
  0.3006116051218413D-01   7   7   7   3
 -0.1807960456959198D-01   8   3   7   3
  0.1696261860786974D-02   8   7   7   3
  0.5875825360140086D-01   8   8   7   3
 -0.1785392306441989D-02   9   1   7   3
 -0.2675574329146314D-02   9   2   7   3
  0.3687254594565122D-01   9   4   7   3
 -0.9344458620724749D-04   9   6   7   3
  0.7652186115859114D-01   9   9   7   3
 -0.4236527613342862D-01  10   5   7   3
  0.8669374897264484D-01  10  10   7   3
  0.6073214203219611D-03  11   1   7   3
  0.1656156339105706D-01  11   2   7   3
  0.1682246426512127D-01  11   4   7   3
 -0.1320723375890720D-01  11   6   7   3
  0.3535651565568251D-01  11   9   7   3
  0.4729731698254830D-01  11  11   7   3
  0.3389061356155619D-01  12   3   7   3
  0.4416157830908013D-01  12   7   7   3
 -0.4474653687335446D-01  12   8   7   3
  0.5967534913950753D-01  12  12   7   3
  0.3013623501647429D-02  13   1   7   3
  0.3013670351447105D-01  13   2   7   3
 -0.5583143302089200D-02  13   4   7   3
 -0.3395634409160064D-01  13   6   7   3
 -0.1526320103028114D-01  13   9   7   3
  0.1753298198936881D-01  13  11   7   3
  0.4114695250235467D-01  13  13   7   3
  0.4568284755200284D-01   7   4   7   4
 -0.2219263705947477D-01   7   6   7   4
  0.6642288595960187D-02   8   1   7   4
 -0.2221522934739466D-02   8   2   7   4
  0.1284130399855680D-01   8   4   7   4
  0.2903620935104043D-01   8   6   7   4
 -0.1599854586594347D-03   9   3   7   4
 -0.5595925120196757D-02   9   7   7   4
 -0.1166189896465422D-01   9   8   7   4
  0.1502412712814699D-01  11   3   7   4
 -0.4243757295816664D-02  11   7   7   4
 -0.3464834189189915D-01  11   8   7   4
 -0.9669491740633215D-02  12   1   7   4
  0.1777967887750193D-02  12   2   7   4
  0.2238439441855665D-01  12   4   7   4
  0.2592995341324400D-02  12   6   7   4
  0.2677725187673340D-01  12   9   7   4
  0.2667835278452301D-02  12  11   7   4
 -0.1445223368959439D-01  13   3   7   4
 -0.2567559187674595D-02  13   7   7   4
  0.8926181476880006D-02  13   8   7   4
  0.4309592475406421D-01  13  12   7   4
  0.1065624597327907D-01   7   5   7   5
  0.2143461578929668D-02   8   5   7   5
 -0.4015198411854787D-02  10   3   7   5
 -0.2520762049014816D-02  10   7   7   5
  0.8677928280446471D-02  10   8   7   5
  0.6644158533174502D-02  12   5   7   5
 -0.8864926855202572D-02  12  10   7   5
  0.5099252328604820D-01   7   6   7   6
 -0.3691924817468947D-02   8   1   7   6
  0.9820351175158129D-02   8   2   7   6
 -0.3224845967100265D-03   8   4   7   6
 -0.2372791627854320D-01   8   6   7   6
  0.4078938369979551D-02   9   3   7   6
  0.6191834976406962D-02   9   7   7   6
 -0.1009585093855654D-01   9   8   7   6
 -0.1882621151164265D-01  11   3   7   6
  0.4883154027907066D-02  11   7   7   6
  0.1879713841234468D-01  11   8   7   6
  0.4861417790823382D-02  12   1   7   6
  0.8440946477175422D-02  12   2   7   6
 -0.8963779355896609D-02  12   4   7   6
 -0.1377544462583424D-01  12   6   7   6
 -0.1172015328200122D-01  12   9   7   6
  0.1195654066920399D-01  12  11   7   6
  0.1518915092328643D-01  13   3   7   6
  0.8025539460365216D-02  13   7   7   6
 -0.1753193763715995D-01  13   8   7   6
 -0.5161720338538967D-01  13  12   7   6
  0.3239516720922621D+00   7   7   7   7
 -0.3455504881060192D-01   8   3   7   7
 -0.1342716379360565D-01   8   7   7   7
  0.3254342100813529D+00   8   8   7   7
 -0.9651433585492335D-03   9   1   7   7
  0.7641599183261238D-04   9   2   7   7
  0.4718623255925385D-01   9   4   7   7
  0.1679386218940176D-01   9   6   7   7
  0.3379631978103030D+00   9   9   7   7
 -0.5524121791545358D-01  10   5   7   7
  0.3416783248992682D+00  10  10   7   7
  0.7754227063273057D-03  11   1   7   7
  0.3008455633691293D-01  11   2   7   7