1 : ne-avdz.inp
----- GAMESS execution script 'rungms' -----
This job is running on host coupled.cem.msu.edu
under operating system Linux at Sun Sep 10 14:44:24 EDT 2023
Available scratch disk space (Kbyte units) at beginning of the job is
Filesystem      1K-blocks       Used Available Use% Mounted on
/dev/sdb2      2620586816 2158382108 329079832  87% /scratch
GAMESS temporary binary files will be written to /scratch/gururang
GAMESS supplementary output files will be written to /scratch/gururang/test-cc3/ne
Copying input file /scratch/gururang/test-cc3/ne/ne-avdz.inp to your run's scratch directory...

 Distributed Data Interface kickoff program.
 Initiating 1 compute processes on 1 nodes to run the following command:
 /home2/gururang/gamess_new/gamess/gamess.00.x ne-avdz 

          *******************************************************
          *                                                     *
          *          GAMESS VERSION = 30 SEP 2022 (R2)          *
          *                                                     *
          *              doi.org/10.1063/5.0005188              *
          *                                                     *
          **************** 64 BIT LINUX VERSION *****************

  GAMESS HAS BEEN MADE POSSIBLE WITH IMPORTANT CONTRIBUTIONS FROM
  THE FOLLOWING INDIVIDUALS (IN ALPHABETICAL ORDER):

     IVANA ADAMOVIC, CHRISTINE AIKENS, TOMOKO AKAMA,
     MELISA ALKAN, YURI ALEXEEV, YURIKO AOKI, POOJA ARORA,
     TOSHIO ASADA, ANDREY ASADCHEV, KIM K. BALDRIDGE,
     PRADIPTA BANDYOPADHYAY, TAYLOR A. BARNES, MARIA BARYSZ,
     ROB BELL, JONATHAN BENTZ, COLLEEN BERTONI,
     JERRY A. BOATZ, BRETT BODE, KURT BRORSEN, KURT R. BRORSEN,
     LAIMUTIS BYTAUTAS, CALEB CARLIN, LAURA CARRINGTON,
     GALINA CHABAN, BENOIT CHAMPAGNE, WEI CHEN, MAHITO CHIBA,
     DAN CHIPMAN, CHEOL HO CHOI, TANNER CULPITT,
     DIPAYAN DATTA, PAUL DAY, ALBERT DEFUSCO,
     NUWAN DESILVA, J. EMILIANO DEUSTUA,
     TIM DUDLEY, MICHEL DUPUIS, STEVEN T. ELBERT,
     DMITRI FEDOROV, KATHERINE FERRERAS, MICHAEL FILATOV,
     ALEX FINDLATER,GRAHAM FLETCHER, MARK FREITAG,
     CHRISTIAN FRIEDL, DAVID GARMER, 
     IGOR S. GERASIMOV, KURT GLAESEMANN,
     MARK S. GORDON, JEFFREY GOUR, FENG LONG GU,
     EMILIE B. GUIDEZ, ANASTASIA GUNINA, SHARON HAMMES-SCHIFFER,
     MASATAKE HARUTA, KIMIHIKO HIRAO, YASUHIRO IKABATA,
     TZVETELIN IORDANOV, STEPHAN IRLE, KAZUYA ISHIMURA,
     JOE IVANIC, FRANK JENSEN, JAN H. JENSEN, VISVALDAS KAIRYS,
     MUNEAKI KAMIYA, MICHIO KATOUDA, NAOAKI KAWAKAMI, DAN KEMP,
     BERNARD KIRTMAN, KAZUO KITAURA, MARIUSZ KLOBUKOWSKI,
     MASATO KOBAYASHI, KONSTANTIN KOMAROV, PRAKASHAN KORAMBATH,
     JACEK KORCHOWIEC, SHIRO KOSEKI, KAROL KOWALSKI,
     JIMMY KROMANN, STANISLAW KUCHARSKI, HENRY KURTZ,
     SAROM SOK LEANG, SEUNGHOON LEE, HUI LI, SHUHUA LI, WEI LI,
     JESSE LUTZ, ALEKSANDR O. LYKHIN, MARCIN MAKOWSKI,
     JOANI MATO, NIKITA MATSUNAGA, BENEDETTA MENNUCCI,
     GRANT MERRILL, NORIYUKI MINEZAWA, VLADIMIR MIRONOV,
     EISAKU MIYOSHI, JOHN A. MONTGOMERY JR., HIROTOSHI MORI,
     JONATHAN MULLIN, MONIKA MUSIAL, SHIGERU NAGASE,
     TAKESHI NAGATA, HIROMI NAKAI, TAKAHITO NAKAJIMA,
     YUYA NAKAJIMA, HARUYUKI NAKANO, HIROYA NAKATA, SEAN NEDD,
     HEATHER NETZLOFF, KIET A. NGUYEN, YOSHIO NISHIMOTO,
     BOSILJKA NJEGIC, RYAN OLSON, MIKE PAK, ROBERTO PEVERATI,
     BUU PHAM, PIOTR PIECUCH, ANNA POMOGAEVA, DAVID POOLE,
     SPENCER PRUITT, OLIVIER QUINET, LUKE ROSKOP,
     KLAUS RUEDENBERG, ANDREW SAND, TOSAPORN SATTASATHUCHANA,
     NOZOMI SAWADA, MICHAEL W. SCHMIDT, PATRICK E. SCHNEIDER,
     JUNJI SEINO, PRACHI SHARMA, JUN SHEN, JIM SHOEMAKER,
     YINAN SHU, DEJUN SI, JONATHAN SKONE, LYUDMILA SLIPCHENKO,
     TONY SMITH, JIE SONG, MARK SPACKMAN, CASPER STEINMANN,
     WALT STEVENS, PEIFENG SU, SHUJUN SU, CHET SWALINA,
     CHINAMI TAKASHIMA, TETSUYA TAKETSUGU, ZHEN TAO,
     NANDUN THELLAMUREGE, SEIKEN TOKURA, JACOPO TOMASI,
     TSUGUKI TOUMA, TAKAO TSUNEDA, HIROAKI UMEDA,
     JORGE LUIS GALVEZ VALLEJO, YALI WANG, SIMON WEBB,
     AARON WEST, THERESA L. WINDUS, MARTA WLOCH,
     PENG XU, KIYOSHI YAGI, SUSUMU YANAGISAWA, YANG YANG,
     SOOHAENG YOO, TAKESHI YOSHIKAWA, FEDERICO ZAHARIEV,
     TOBY ZENG

  WHO ARE SUPPORTED BY THEIR INSTITUTION/UNIVERSITY/COMPANY/GROUP
  (IN ALPHABETICAL ORDER):

     EP ANALYTICS,
     FACULTES UNIVERSITAIRES NOTRE-DAME DE LA PAIX,
     INSTITUTE FOR MOLECULAR SCIENCE, IOWA STATE UNIVERSITY,
     JACKSON STATE UNIVERSITY, JOHANNES KEPLER UNIVERSITY LINZ,
     KYUNGPOOK NATIONAL UNIVERSITY
     KYUSHU UNIVERSITY, MICHIGAN STATE UNIVERSITY,
     MIE UNIVERSITY, THE MOLECULAR SCIENCES SOFTWARE INSTITUTE,
     MOSCOW STATE UNIVERSITY,
     N. COPERNICUS UNIVERSITY, NAGOYA UNIVERSITY,
     NANJING UNIVERSITY, NAT. INST. OF ADVANCED INDUSTRIAL
     SCIENCE AND TECHNOLOGY, NATIONAL INST. OF STANDARDS AND
     TECHNOLOGY, NESMEYANOV INSTITUTE OF ORGANOELEMENT COMPOUNDS
     OF RUSSIAN ACADEMY OF SCIENCES, OSAKA PREFECTURE UNIVERSITY,
     PENNSYLVANIA STATE UNIVERSITY, TOKYO INSTITUTE OF TECHNOLOGY,
     UNIVERSITY OF AARHUS, UNIVERSITY OF ALBERTA,
     UNIVERSITY OF CALIFORNIA AT SANTA BARBARA,
     UNIVERSITY OF COPENHAGEN, UNIVERSITY OF IOWA,
     UNIVERSITY OF MEMPHIS, UNIVERSITY OF MINNESOTA,
     UNIVERSITY OF NEBRASKA, UNIVERSITY OF NEW ENGLAND,
     UNIVERSITY OF NOTRE DAME, UNIVERSITY OF PISA,
     UNIVERSITY OF SILESIA, UNIVERSITY OF TOKYO,
     UNIVERSITY OF ZURICH, WASEDA UNIVERSITY,
     YALE UNIVERSITY

  GAMESS SOFTWARE MANAGEMENT TEAM FOR THIS RELEASE:
     MARK S. GORDON (TEAM LEAD),
     BRETT BODE (SENIOR ADVISOR),
     GIUSEPPE BARCA,
     COLLEEN BERTONI,
     KRISTOPHER KEIPERT (ADVISOR),
     SAROM S. LEANG (DEVELOPMENT LEAD),
     BUU PHAM,
     JACKSON HAYES (WEBSITE ADMINISTRATOR),
     PENG XU

 EXECUTION OF GAMESS BEGUN 14:44:24 10-SEP-2023    

            ECHO OF THE FIRST FEW INPUT CARDS -
 INPUT CARD> $contrl runtyp=fcidump scftyp=rhf mult=1                                       
 INPUT CARD>         ispher=1 units=bohr $end                                               
 INPUT CARD> $system mwords=50 $end                                                         
 INPUT CARD> $data                                                                          
 INPUT CARD>Ne in custom aug-cc-pVDZ basis from Koch CPL 244 75 (1995)                      
 INPUT CARD>C1                                                                              
 INPUT CARD> Ne   10.0     0.000000    0.000000    0.0000                                   
 INPUT CARD>S   9                                                                           
 INPUT CARD>1         1.788000E+04           7.380000E-04                                   
 INPUT CARD>2         2.683000E+03           5.677000E-03                                   
 INPUT CARD>3         6.115000E+02           2.888300E-02                                   
 INPUT CARD>4         1.735000E+02           1.085400E-01                                   
 INPUT CARD>5         5.664000E+01           2.909070E-01                                   
 INPUT CARD>6         2.042000E+01           4.483240E-01                                   
 INPUT CARD>7         7.810000E+00           2.580260E-01                                   
 INPUT CARD>8         1.653000E+00           1.506300E-02                                   
 INPUT CARD>9         4.869000E-01          -2.100000E-03                                   
 INPUT CARD>S   9                                                                           
 INPUT CARD>1         1.788000E+04          -1.720000E-04                                   
 INPUT CARD>2         2.683000E+03          -1.357000E-03                                   
 INPUT CARD>3         6.115000E+02          -6.737000E-03                                   
 INPUT CARD>4         1.735000E+02          -2.766300E-02                                   
 INPUT CARD>5         5.664000E+01          -7.620800E-02                                   
 INPUT CARD>6         2.042000E+01          -1.752270E-01                                   
 INPUT CARD>7         7.810000E+00          -1.070380E-01                                   
 INPUT CARD>8         1.653000E+00           5.670500E-01                                   
 INPUT CARD>9         4.869000E-01           5.652160E-01                                   
 INPUT CARD>S   1                                                                           
 INPUT CARD>1         4.869000E-01           1.000000E+00                                   
 INPUT CARD>P   4                                                                           
 INPUT CARD>1         2.839000E+01           4.608700E-02                                   
 INPUT CARD>2         6.270000E+00           2.401810E-01                                   
 INPUT CARD>3         1.695000E+00           5.087440E-01                                   
 INPUT CARD>4         4.317000E-01           4.556600E-01                                   
 INPUT CARD>P   1                                                                           
 INPUT CARD>1         4.317000E-01           1.000000E+00                                   
 INPUT CARD>D   1                                                                           
 INPUT CARD>1         2.202000E+00           1.0000000                                      
 INPUT CARD>S   1                                                                           
 INPUT CARD>1         0.04                   1.00                                           
 INPUT CARD>P   1                                                                           
 INPUT CARD>1         0.03                   1.00                                           
 INPUT CARD>                                                                                
 INPUT CARD> $end                                                                           
     50000000 WORDS OF MEMORY AVAILABLE


     RUN TITLE
     ---------
 Ne in custom aug-cc-pVDZ basis from Koch CPL 244 75 (1995)                      

 THE POINT GROUP OF THE MOLECULE IS C1      
 THE ORDER OF THE PRINCIPAL AXIS IS     0

 ATOM      ATOMIC                      COORDINATES (BOHR)
           CHARGE         X                   Y                   Z
 NE         10.0     0.0000000000        0.0000000000        0.0000000000

          INTERNUCLEAR DISTANCES (ANGS.)
          ------------------------------

                1 NE    

   1 NE      0.0000000  

  * ... LESS THAN  3.000


     ATOMIC BASIS SET
     ----------------
 THE CONTRACTED PRIMITIVE FUNCTIONS HAVE BEEN UNNORMALIZED
 THE CONTRACTED BASIS FUNCTIONS ARE NOW NORMALIZED TO UNITY

  SHELL TYPE  PRIMITIVE        EXPONENT          CONTRACTION COEFFICIENT(S)

 NE        

      1   S       1         17880.0000000    0.000738000227
      1   S       2          2683.0000000    0.005677001743
      1   S       3           611.5000000    0.028883008870
      1   S       4           173.5000000    0.108540033334
      1   S       5            56.6400000    0.290907089342
      1   S       6            20.4200000    0.448324137687
      1   S       7             7.8100000    0.258026079244
      1   S       8             1.6530000    0.015063004626
      1   S       9             0.4869000   -0.002100000645

      2   S      10         17880.0000000   -0.000172000002
      2   S      11          2683.0000000   -0.001357000019
      2   S      12           611.5000000   -0.006737000095
      2   S      13           173.5000000   -0.027663000388
      2   S      14            56.6400000   -0.076208001069
      2   S      15            20.4200000   -0.175227002458
      2   S      16             7.8100000   -0.107038001502
      2   S      17             1.6530000    0.567050007956
      2   S      18             0.4869000    0.565216007930

      3   S      19             0.4869000    1.000000000000

      4   P      20            28.3900000    0.046087029079
      4   P      21             6.2700000    0.240181151545
      4   P      22             1.6950000    0.508744320997
      4   P      23             0.4317000    0.455660287503

      5   P      24             0.4317000    1.000000000000

      6   D      25             2.2020000    1.000000000000

      7   S      26             0.0400000    1.000000000000

      8   P      27             0.0300000    1.000000000000

 TOTAL NUMBER OF BASIS SET SHELLS             =    8
 NUMBER OF CARTESIAN GAUSSIAN BASIS FUNCTIONS =   19
 NOTE: THIS RUN WILL RESTRICT THE MO VARIATION SPACE TO SPHERICAL HARMONICS.
 THE NUMBER OF ORBITALS KEPT IN THE VARIATIONAL SPACE WILL BE PRINTED LATER.
 NUMBER OF ELECTRONS                          =   10
 CHARGE OF MOLECULE                           =    0
 SPIN MULTIPLICITY                            =    1
 NUMBER OF OCCUPIED ORBITALS (ALPHA)          =    5
 NUMBER OF OCCUPIED ORBITALS (BETA )          =    5
 TOTAL NUMBER OF ATOMS                        =    1
 THE NUCLEAR REPULSION ENERGY IS        0.0000000000

 THIS MOLECULE IS RECOGNIZED AS BEING LINEAR,
 ORBITAL LZ DEGENERACY TOLERANCE ETOLLZ= 1.00E-06

     $CONTRL OPTIONS
     ---------------
 SCFTYP=ROHF         RUNTYP=FCIDUMP      EXETYP=RUN     
 MPLEVL=       0     CITYP =NONE         CCTYP =NONE         VBTYP =NONE    
 DFTTYP=NONE         TDDFT =NONE    
 MULT  =       1     ICHARG=       0     NZVAR =       0     COORD =UNIQUE  
 PP    =NONE         RELWFN=NONE         LOCAL =NONE         NUMGRD=       F
 ISPHER=       1     NOSYM =       0     MAXIT =      30     UNITS =BOHR    
 PLTORB=       F     MOLPLT=       F     AIMPAC=       F     FRIEND=        
 NPRINT=       7     IREST =       0     GEOM  =INPUT   
 NORMF =       0     NORMP =       0     ITOL  =      20     ICUT  =       9
 INTTYP=BEST         GRDTYP=BEST         QMTTOL= 1.0E-06

     $SYSTEM OPTIONS
     ---------------
  REPLICATED MEMORY=    50000000 WORDS (ON EVERY NODE).
 DISTRIBUTED MEMDDI=           0 MILLION WORDS IN AGGREGATE,
 MEMDDI DISTRIBUTED OVER   1 PROCESSORS IS           0 WORDS/PROCESSOR.
 TOTAL MEMORY REQUESTED ON EACH PROCESSOR=    50000000 WORDS.
 TIMLIM=      525600.00 MINUTES, OR     365.0 DAYS.
 PARALL= F  BALTYP=  DLB     KDIAG=    0  COREFL= F
 MXSEQ2=     300 MXSEQ3=     150  mem10=         0  mem22=         0

          ----------------
          PROPERTIES INPUT
          ----------------

     MOMENTS            FIELD           POTENTIAL          DENSITY
 IEMOM =       1   IEFLD =       0   IEPOT =       0   IEDEN =       0
 WHERE =COMASS     WHERE =NUCLEI     WHERE =NUCLEI     WHERE =NUCLEI  
 OUTPUT=BOTH       OUTPUT=BOTH       OUTPUT=BOTH       OUTPUT=BOTH    
 IEMINT=       0   IEFINT=       0                     IEDINT=       0
                                                       MORB  =       0
          EXTRAPOLATION IN EFFECT
          SOSCF IN EFFECT
 ORBITAL PRINTING OPTION: NPREO=     1    19     2     1

     -------------------------------
     INTEGRAL TRANSFORMATION OPTIONS
     -------------------------------
     NWORD  =            0
     CUTTRF = 1.0E-09     MPTRAN =       0
     DIRTRF =       F     AOINTS =DUP     

          ----------------------
          INTEGRAL INPUT OPTIONS
          ----------------------
 NOPK  =       1 NORDER=       0 SCHWRZ=       F

     ------------------------------------------
     THE POINT GROUP IS C1 , NAXIS= 0, ORDER= 1
     ------------------------------------------

 -- VARIATIONAL SPACE WILL BE RESTRICTED TO PURE SPHERICAL HARMONICS ONLY --
 AFTER EXCLUDING CONTAMINANT COMBINATIONS FROM THE CARTESIAN GAUSSIAN BASIS
 SET, THE NUMBER OF SPHERICAL HARMONICS KEPT IN THE VARIATION SPACE IS   18

     DIMENSIONS OF THE SYMMETRY SUBSPACES ARE
 A   =   18

 ..... DONE SETTING UP THE RUN .....
 STEP CPU TIME =     0.03 TOTAL CPU TIME =          0.0 (      0.0 MIN)
 TOTAL WALL CLOCK TIME=          0.0 SECONDS, CPU UTILIZATION IS    99.99%

          ********************
          1 ELECTRON INTEGRALS
          ********************
 ...... END OF ONE-ELECTRON INTEGRALS ......
 STEP CPU TIME =     0.00 TOTAL CPU TIME =          0.0 (      0.0 MIN)
 TOTAL WALL CLOCK TIME=          0.0 SECONDS, CPU UTILIZATION IS    99.97%

          -------------
          GUESS OPTIONS
          -------------
          GUESS =HUCKEL            NORB  =       0          NORDER=       0
          MIX   =       F          PRTMO =       F          PUNMO =       F
          TOLZ  = 1.0E-08          TOLE  = 1.0E-05
          SYMDEN=       F          PURIFY=       F

 INITIAL GUESS ORBITALS GENERATED BY HUCKEL   ROUTINE.
 HUCKEL GUESS REQUIRES      3656 WORDS.

 STATISTICS FOR GENERATION OF SYMMETRY ORBITAL -Q- MATRIX
 NUMBER OF CARTESIAN ATOMIC ORBITALS=         19
 NUMBER OF SPHERICAL CONTAMINANTS DROPPED=     1
 NUMBER OF LINEARLY DEPENDENT MOS DROPPED=     0
 TOTAL NUMBER OF MOS IN VARIATION SPACE=      18

 SYMMETRIES FOR INITIAL GUESS ORBITALS FOLLOW.  ALPHA SET(S).
     5 ORBITALS ARE OCCUPIED (    1 CORE ORBITALS).
     2=A        3=A        4=A        5=A        6=A        7=A        8=A   
     9=A       10=A       11=A       12=A       13=A       14=A       15=A   

 SYMMETRIES FOR INITIAL GUESS ORBITALS FOLLOW.   BETA SET(S).
     5 ORBITALS ARE OCCUPIED (    1 CORE ORBITALS).
     2=A        3=A        4=A        5=A        6=A        7=A        8=A   
     9=A       10=A       11=A       12=A       13=A       14=A       15=A   
 ...... END OF INITIAL ORBITAL SELECTION ......
 STEP CPU TIME =     0.01 TOTAL CPU TIME =          0.0 (      0.0 MIN)
 TOTAL WALL CLOCK TIME=          0.0 SECONDS, CPU UTILIZATION IS    99.53%

                    ----------------------
                    AO INTEGRAL TECHNOLOGY
                    ----------------------
     S,P,L SHELL ROTATED AXIS INTEGRALS, REPROGRAMMED BY
        KAZUYA ISHIMURA (IMS) AND JOSE SIERRA (SYNSTAR).
     S,P,D,L SHELL ROTATED AXIS INTEGRALS PROGRAMMED BY
        KAZUYA ISHIMURA (INSTITUTE FOR MOLECULAR SCIENCE).
     S,P,D,F,G SHELL TO TOTAL QUARTET ANGULAR MOMENTUM SUM 5,
        ERIC PROGRAM BY GRAHAM FLETCHER (ELORET AND NASA ADVANCED
        SUPERCOMPUTING DIVISION, AMES RESEARCH CENTER).
     S,P,D,F,G,L SHELL GENERAL RYS QUADRATURE PROGRAMMED BY
        MICHEL DUPUIS (PACIFIC NORTHWEST NATIONAL LABORATORY).

          --------------------
          2 ELECTRON INTEGRALS
          --------------------

 THE -PK- OPTION IS OFF, THE INTEGRALS ARE NOT IN SUPERMATRIX FORM.
 STORING   15000 INTEGRALS/RECORD ON DISK, USING 12 BYTES/INTEGRAL.
 TWO ELECTRON INTEGRAL EVALUATION REQUIRES   90432 WORDS OF MEMORY.
 II,JST,KST,LST =  1  1  1  1 NREC =         1 INTLOC =    1
 II,JST,KST,LST =  2  1  1  1 NREC =         1 INTLOC =    2
 II,JST,KST,LST =  3  1  1  1 NREC =         1 INTLOC =    7
 II,JST,KST,LST =  4  1  1  1 NREC =         1 INTLOC =   22
 II,JST,KST,LST =  5  1  1  1 NREC =         1 INTLOC =   67
 II,JST,KST,LST =  6  1  1  1 NREC =         1 INTLOC =  214
 II,JST,KST,LST =  7  1  1  1 NREC =         1 INTLOC = 1189
 II,JST,KST,LST =  8  1  1  1 NREC =         1 INTLOC = 1589
 TOTAL NUMBER OF NONZERO TWO-ELECTRON INTEGRALS =                2863
          1 INTEGRAL RECORDS WERE STORED ON DISK FILE  8.
  ...... END OF TWO-ELECTRON INTEGRALS .....
 STEP CPU TIME =     0.02 TOTAL CPU TIME =          0.1 (      0.0 MIN)
 TOTAL WALL CLOCK TIME=          0.1 SECONDS, CPU UTILIZATION IS    97.64%

          ---------------------------
                 ROHF SCF CALCULATION
          ---------------------------

     NUCLEAR ENERGY =         0.0000000000
     MAXIT = 30     NPUNCH=  2     MULT=  1
     EXTRAP=T  DAMP=F  SHIFT=F  RSTRCT=F  DIIS=F  SOSCF=T
     DENSITY MATRIX CONV=  1.00E-05
     ROHF CANONICALIZATION PARAMETERS
             C-C     O-O     V-V
     ALPHA -0.5000  0.5000  1.5000
     BETA   1.5000  0.5000 -0.5000
     SOSCF WILL OPTIMIZE      65 ORBITAL ROTATION ANGLES. SOGTOL= 2.500E-01
     MEMORY REQUIRED FOR UHF/ROHF ITERS=     33924 WORDS.

 ITER EX      TOTAL ENERGY        E CHANGE  DENSITY CHANGE    ORB. GRAD 
   1  0     -128.4386083556  -128.4386083556   0.162064165   0.000000000
          ---------------START SECOND ORDER SCF---------------
   2  1     -128.4909065086    -0.0522981530   0.054965362   0.018881974
   3  2     -128.4915416695    -0.0006351609   0.010298006   0.006953076
   4  3     -128.4916518467    -0.0001101772   0.000482282   0.000773119
   5  4     -128.4916520184    -0.0000001717   0.000105628   0.000054917
   6  5     -128.4916520196    -0.0000000012   0.000010666   0.000003305
   7  6     -128.4916520196    -0.0000000000   0.000001138   0.000000445
   8  7     -128.4916520196    -0.0000000000   0.000000003   0.000000015

          -----------------
          DENSITY CONVERGED
          -----------------
     TIME TO FORM FOCK OPERATORS=       0.0 SECONDS (       0.0 SEC/ITER)
     TIME TO SOLVE SCF EQUATIONS=       0.0 SECONDS (       0.0 SEC/ITER)

 FINAL ROHF ENERGY IS     -128.4916520196 AFTER   8 ITERATIONS

          --------------------
          SPIN SZ   =    0.000
          S-SQUARED =    0.000
          --------------------

 LZ VALUE ANALYSIS FOR THE MOS
 ----------------------------------------
 MO     1 (    1) HAS LZ(WEIGHT)= 0.00(100.0%) 
 MO     2 (    2) HAS LZ(WEIGHT)= 0.00(100.0%) 
 MO     3 (    3) HAS LZ(WEIGHT)=-1.00(  5.9%) -0.00( 88.1%)  1.00(  5.9%) 
 MO     4 (    3) HAS LZ(WEIGHT)=-1.00( 48.0%) -0.00(  4.0%)  1.00( 48.0%) 
 MO     5 (    3) HAS LZ(WEIGHT)=-1.00( 46.1%) -0.00(  7.9%)  1.00( 46.1%) 
 MO     6 (    4) HAS LZ(WEIGHT)=-1.00(  6.8%)  0.00( 86.4%)  1.00(  6.8%) 
 MO     7 (    4) HAS LZ(WEIGHT)=-1.00( 47.2%)  0.00(  5.6%)  1.00( 47.2%) 
 MO     8 (    4) HAS LZ(WEIGHT)=-1.00( 46.0%)  0.00(  8.0%)  1.00( 46.0%) 
 MO     9 (    5) HAS LZ(WEIGHT)= 0.00(100.0%) 
 MO    10 (    6) HAS LZ(WEIGHT)=-1.00(  5.4%)  0.00( 89.3%)  1.00(  5.4%) 
 MO    11 (    6) HAS LZ(WEIGHT)=-1.00( 48.4%)  0.00(  3.3%)  1.00( 48.4%) 
 MO    12 (    6) HAS LZ(WEIGHT)=-1.00( 46.3%)  0.00(  7.5%)  1.00( 46.3%) 
 MO    13 (    7) HAS LZ(WEIGHT)= 0.00(100.0%) 
 MO    14 (    8) HAS LZ(WEIGHT)=-2.00( 41.8%) -1.00(  5.0%) -0.00(  6.3%)  1.00(  5.0%)  2.00( 41.8%) 
 MO    15 (    8) HAS LZ(WEIGHT)=-2.00( 40.0%) -1.00( 10.0%)  1.00( 10.0%)  2.00( 40.0%) 
 MO    16 (    8) HAS LZ(WEIGHT)=-2.00( 10.0%) -1.00( 40.0%)  1.00( 40.0%)  2.00( 10.0%) 
 MO    17 (    8) HAS LZ(WEIGHT)=-1.00( 27.8%) -0.00( 43.8%)  1.00( 27.8%) 
 MO    18 (    8) HAS LZ(WEIGHT)=-2.00(  7.9%) -1.00( 17.1%) -0.00( 49.9%)  1.00( 17.1%)  2.00(  7.9%) 

          ------------
          EIGENVECTORS
          ------------

                      1          2          3          4          5
                  -32.7756    -1.9256    -0.8388    -0.8388    -0.8388
                     A          A          A          A          A   
    1  NE 1  S    1.000053   0.001255  -0.000000  -0.000000  -0.000000
    2  NE 1  S    0.000200   1.004178  -0.000000  -0.000000  -0.000000
    3  NE 1  S   -0.000331  -0.008387  -0.000000  -0.000000  -0.000000
    4  NE 1  X   -0.000000  -0.000000   0.051123   0.885772  -0.461907
    5  NE 1  Y   -0.000000  -0.000000   0.341105   0.419235   0.841697
    6  NE 1  Z   -0.000000  -0.000000   0.938934  -0.200533  -0.280630
    7  NE 1  X   -0.000000  -0.000000  -0.000185  -0.003202   0.001670
    8  NE 1  Y   -0.000000  -0.000000  -0.001233  -0.001515  -0.003042
    9  NE 1  Z   -0.000000  -0.000000  -0.003394   0.000725   0.001014
   10  NE 1 XX   -0.000000  -0.000000  -0.000000  -0.000000  -0.000000
   11  NE 1 YY   -0.000000  -0.000000  -0.000000  -0.000000  -0.000000
   12  NE 1 ZZ   -0.000000  -0.000000  -0.000000  -0.000000  -0.000000
   13  NE 1 XY   -0.000000  -0.000000  -0.000000  -0.000000  -0.000000
   14  NE 1 XZ   -0.000000  -0.000000  -0.000000  -0.000000  -0.000000
   15  NE 1 YZ   -0.000000  -0.000000  -0.000000  -0.000000  -0.000000
   16  NE 1  S    0.000344   0.011830  -0.000000  -0.000000  -0.000000
   17  NE 1  X   -0.000000  -0.000000   0.001214   0.021036  -0.010970
   18  NE 1  Y   -0.000000  -0.000000   0.008101   0.009957   0.019990
   19  NE 1  Z   -0.000000  -0.000000   0.022299  -0.004763  -0.006665

                      6          7          8          9         10
                    0.0796     0.0796     0.0796     0.0925     1.7192
                     A          A          A          A          A   
    1  NE 1  S    0.000000  -0.000000   0.000000   0.010922   0.000000
    2  NE 1  S    0.000000  -0.000000   0.000000  -0.117723   0.000000
    3  NE 1  S    0.000000  -0.000000   0.000000  -0.232239   0.000000
    4  NE 1  X   -0.008551  -0.085684   0.043664  -0.000000  -0.044820
    5  NE 1  Y   -0.034520  -0.038180  -0.081683  -0.000000  -0.424224
    6  NE 1  Z   -0.089759   0.022846   0.027254  -0.000000  -1.229514
    7  NE 1  X   -0.002767  -0.027725   0.014128  -0.000000   0.057188
    8  NE 1  Y   -0.011169  -0.012354  -0.026430  -0.000000   0.541280
    9  NE 1  Z   -0.029043   0.007392   0.008818  -0.000000   1.568773
   10  NE 1 XX    0.000000  -0.000000   0.000000  -0.000000   0.000000
   11  NE 1 YY    0.000000  -0.000000   0.000000   0.000000   0.000000
   12  NE 1 ZZ    0.000000  -0.000000   0.000000  -0.000000   0.000000
   13  NE 1 XY    0.000000  -0.000000   0.000000  -0.000000   0.000000
   14  NE 1 XZ    0.000000  -0.000000   0.000000  -0.000000   0.000000
   15  NE 1 YZ    0.000000  -0.000000   0.000000  -0.000000   0.000000
   16  NE 1  S    0.000000  -0.000000   0.000000   1.072180   0.000000
   17  NE 1  X    0.089215   0.893927  -0.455535  -0.000000  -0.004746
   18  NE 1  Y    0.360138   0.398321   0.852184  -0.000000  -0.044922
   19  NE 1  Z    0.936439  -0.238352  -0.284336  -0.000000  -0.130196

                     11         12         13         14         15
                    1.7192     1.7192     2.3129     5.1889     5.1889
                     A          A          A          A          A   
    1  NE 1  S    0.000000   0.000000  -0.647941  -0.000000  -0.000000
    2  NE 1  S    0.000000   0.000000  -3.060493  -0.000000  -0.000000
    3  NE 1  S    0.000000   0.000000   3.389337   0.000000   0.000000
    4  NE 1  X   -1.150429   0.606781  -0.000000   0.000000  -0.000000
    5  NE 1  Y   -0.561008  -1.094981  -0.000000   0.000000  -0.000000
    6  NE 1  Z    0.235504   0.355687  -0.000000   0.000000  -0.000000
    7  NE 1  X    1.467866  -0.774210  -0.000000   0.000000  -0.000000
    8  NE 1  Y    0.715806   1.397118  -0.000000   0.000000  -0.000000
    9  NE 1  Z   -0.300487  -0.453831  -0.000000   0.000000  -0.000000
   10  NE 1 XX    0.000000   0.000000   0.000000  -0.125335   0.774284
   11  NE 1 YY    0.000000   0.000000   0.000000  -0.125420  -0.774278
   12  NE 1 ZZ    0.000000   0.000000  -0.000000   0.250754  -0.000006
   13  NE 1 XY    0.000000   0.000000  -0.000000   0.914553  -0.000038
   14  NE 1 XZ    0.000000   0.000000  -0.000000  -0.317356   0.000053
   15  NE 1 YZ    0.000000   0.000000  -0.000000   0.000020   0.447942
   16  NE 1  S    0.000000   0.000000  -0.298159   0.000000  -0.000000
   17  NE 1  X   -0.121821   0.064253  -0.000000   0.000000  -0.000000
   18  NE 1  Y   -0.059406  -0.115950  -0.000000   0.000000  -0.000000
   19  NE 1  Z    0.024938   0.037664  -0.000000   0.000000  -0.000000

                     16         17         18
                    5.1889     5.1889     5.1889
                     A          A          A   
    1  NE 1  S   -0.000000  -0.000000  -0.000000
    2  NE 1  S   -0.000000  -0.000000  -0.000000
    3  NE 1  S    0.000000   0.000000   0.000000
    4  NE 1  X    0.000000  -0.000000  -0.000000
    5  NE 1  Y    0.000000  -0.000000  -0.000000
    6  NE 1  Z    0.000000  -0.000000  -0.000000
    7  NE 1  X    0.000000  -0.000000  -0.000000
    8  NE 1  Y    0.000000  -0.000000  -0.000000
    9  NE 1  Z    0.000000  -0.000000  -0.000000
   10  NE 1 XX   -0.387965  -0.330749  -0.353360
   11  NE 1 YY    0.387893  -0.330830  -0.353347
   12  NE 1 ZZ    0.000072   0.661579   0.706707
   13  NE 1 XY    0.000039   0.077427  -0.396985
   14  NE 1 XZ    0.000158   0.745867  -0.585634
   15  NE 1 YZ    0.894063  -0.000165   0.000060
   16  NE 1  S    0.000000  -0.000000  -0.000000
   17  NE 1  X    0.000000  -0.000000  -0.000000
   18  NE 1  Y    0.000000  -0.000000  -0.000000
   19  NE 1  Z    0.000000  -0.000000  -0.000000
 ...... END OF ROHF CALCULATION ......
 STEP CPU TIME =     0.01 TOTAL CPU TIME =          0.1 (      0.0 MIN)
 TOTAL WALL CLOCK TIME=          0.1 SECONDS, CPU UTILIZATION IS    97.85%

     ----------------------------------------------------------------
     PROPERTY VALUES FOR THE ROHF  SELF-CONSISTENT FIELD WAVEFUNCTION
     ----------------------------------------------------------------

          -----------------
          ENERGY COMPONENTS
          -----------------

         WAVEFUNCTION NORMALIZATION =       1.0000000000

                ONE ELECTRON ENERGY =    -182.5478397355
                TWO ELECTRON ENERGY =      54.0561877158
           NUCLEAR REPULSION ENERGY =       0.0000000000
                                      ------------------
                       TOTAL ENERGY =    -128.4916520196

 ELECTRON-ELECTRON POTENTIAL ENERGY =      54.0561877158
  NUCLEUS-ELECTRON POTENTIAL ENERGY =    -311.0031554998
   NUCLEUS-NUCLEUS POTENTIAL ENERGY =       0.0000000000
                                      ------------------
             TOTAL POTENTIAL ENERGY =    -256.9469677839
               TOTAL KINETIC ENERGY =     128.4553157643
                 VIRIAL RATIO (V/T) =       2.0002828708

          ---------------------------------------
          MULLIKEN AND LOWDIN POPULATION ANALYSES
          ---------------------------------------

     ATOMIC MULLIKEN POPULATION IN EACH MOLECULAR ORBITAL

                      1          2          3          4          5

                  2.000000   2.000000   2.000000   2.000000   2.000000

    1             2.000000   2.000000   2.000000   2.000000   2.000000

          MULLIKEN SPHERICAL HARMONIC POPULATIONS
       ATOM           S       P       D      F      G      H      I    TOTAL
    1 NE            2.00    3.00    0.00   0.00   0.00   0.00   0.00    5.00

          MULLIKEN SPHERICAL HARMONIC POPULATIONS
       ATOM           S       P       D      F      G      H      I    TOTAL
    1 NE            2.00    3.00    0.00   0.00   0.00   0.00   0.00    5.00

     ATOMIC SPIN POPULATION (ALPHA MINUS BETA)
       ATOM         MULL.POP.                    LOW.POP.
    1 NE            0.000000                     0.000000

               ----- POPULATIONS IN EACH AO -----
                             MULLIKEN      LOWDIN
              1  NE 1  S      2.00011     1.96766
              2  NE 1  S      2.00824     0.85040
              3  NE 1  S     -0.01573     0.46919
              4  NE 1  X      2.00002     1.60619
              5  NE 1  Y      2.00002     1.60619
              6  NE 1  Z      2.00002     1.60619
              7  NE 1  X     -0.00574     0.38766
              8  NE 1  Y     -0.00574     0.38766
              9  NE 1  Z     -0.00574     0.38766
             10  NE 1 XX      0.00000     0.22748
             11  NE 1 YY      0.00000     0.22748
             12  NE 1 ZZ      0.00000     0.22748
             13  NE 1 XY      0.00000     0.00000
             14  NE 1 XZ      0.00000     0.00000
             15  NE 1 YZ      0.00000     0.00000
             16  NE 1  S      0.00739     0.03031
             17  NE 1  X      0.00572     0.00615
             18  NE 1  Y      0.00572     0.00615
             19  NE 1  Z      0.00572     0.00615

          ----- MULLIKEN ATOMIC OVERLAP POPULATIONS -----
          (OFF-DIAGONAL ELEMENTS NEED TO BE MULTIPLIED BY 2)

             1

    1   10.0000000

          TOTAL MULLIKEN AND LOWDIN ATOMIC POPULATIONS
       ATOM         MULL.POP.    CHARGE          LOW.POP.     CHARGE
    1 NE           10.000000   -0.000000        10.000000   -0.000000

          MULLIKEN SPHERICAL HARMONIC POPULATIONS
       ATOM           S       P       D      F      G      H      I    TOTAL
    1 NE            4.00    6.00    0.00   0.00   0.00   0.00   0.00   10.00

          -------------------------------
          BOND ORDER AND VALENCE ANALYSIS     BOND ORDER THRESHOLD=0.050
          -------------------------------

                   BOND                       BOND                       BOND
  ATOM PAIR DIST  ORDER      ATOM PAIR DIST  ORDER      ATOM PAIR DIST  ORDER

                       TOTAL       BONDED        FREE
      ATOM            VALENCE     VALENCE     VALENCE
    1 NE               -0.000       0.000      -0.000

          -----------------------------------------
          ATOMIC SPIN DENSITY AT THE NUCLEUS (A.U.)
          -----------------------------------------
                            SPIN DENS    ALPHA DENS     BETA DENS
    1  NE          10.0     0.0000000     296.87741     296.87741

          ---------------------
          ELECTROSTATIC MOMENTS
          ---------------------

 POINT   1           X           Y           Z (BOHR)    CHARGE
                 0.000000    0.000000    0.000000       -0.00 (A.U.)
         DX          DY          DZ         /D/  (DEBYE)
     0.000000    0.000000    0.000000    0.000000
 ...... END OF PROPERTY EVALUATION ......
 STEP CPU TIME =     0.00 TOTAL CPU TIME =          0.1 (      0.0 MIN)
 TOTAL WALL CLOCK TIME=          0.1 SECONDS, CPU UTILIZATION IS    97.98%

     --------------------------------------------
     PARTIAL TWO ELECTRON INTEGRAL TRANSFORMATION
     --------------------------------------------

 NUMBER OF CORE MOLECULAR ORBITALS     =    0
 NUMBER OF OCCUPIED MOLECULAR ORBITALS =   18
 TOTAL NUMBER OF MOLECULAR ORBITALS    =   18
 TOTAL NUMBER OF ATOMIC ORBITALS       =   19
 THRESHOLD FOR KEEPING TRANSFORMED 2E- INTEGRALS = 1.000E-09
 AO INTEGRALS WILL BE READ IN FROM DISK...

 PLAN A: REQUIREMENTS FOR FULLY IN-MEMORY TRANSFORMATION:
 # OF WORDS AVAILABLE =             49999999
 # OF WORDS NEEDED    =               126825

 CHOOSING IN MEMORY PARTIAL TRANSFORMATION...
 TOTAL NUMBER OF TRANSFORMED 2E- INTEGRALS KEPT =         6612
 ... END OF INTEGRAL TRANSFORMATION ...
 STEP CPU TIME =     0.00 TOTAL CPU TIME =          0.1 (      0.0 MIN)
 TOTAL WALL CLOCK TIME=          0.1 SECONDS, CPU UTILIZATION IS    98.07%

     --------------------------------------------------
          FCIDUMP INTEGRAL FILE GENERATION
          WRITTEN BY J. EMILIANO DEUSTUA
     --------------------------------------------------
    WRITING INTEGRALS FROM SERIAL TRANSFORMATION

               580000  WORDS OF DYNAMIC MEMORY USED
 EXECUTION OF GAMESS TERMINATED NORMALLY 14:44:24 10-SEP-2023    
 DDI: 263640 bytes (0.3 MB / 0 MWords) used by master data server.

 ----------------------------------------
 CPU timing information for all processes
 ========================================
 0: 0.73 + 0.33 = 0.106
 ----------------------------------------
 ddikick.x: exited gracefully.
----- accounting info -----
Files used on the master node coupled.cem.msu.edu were:
-rw-r--r-- 1 gururang piecuch    1494 Sep 10 14:44 /scratch/gururang/ne-avdz.F05
-rw-r--r-- 1 gururang piecuch  180016 Sep 10 14:44 /scratch/gururang/ne-avdz.F08
-rw-r--r-- 1 gururang piecuch  181392 Sep 10 14:44 /scratch/gururang/ne-avdz.F09
-rw-r--r-- 1 gururang piecuch 1897760 Sep 10 14:44 /scratch/gururang/ne-avdz.F10
Sun Sep 10 14:44:25 EDT 2023
0.192u 0.084s 0:01.43 18.8%	0+0k 0+8io 0pf+0w
