 &FCI NORB=18,NELEC=20,MS2=0
  ORBSYM=6,1,1,6,1,8,7,3,4,6,1,8,7,3,4,6,1,6,
  ISYM=1 UHF=.FALSE.
 &END
  0.2771653970818963D+01   1   1   1   1
  0.2771668102680341D+01   2   2   1   1
  0.2639613414191568D+00   3   2   1   1
  0.7192581168363161D+00   3   3   1   1
 -0.2648806655018781D+00   4   1   1   1
  0.7212959476385946D+00   4   4   1   1
  0.3017106630714342D-02   5   2   1   1
  0.1069919364019159D-01   5   3   1   1
  0.6752208674960860D+00   5   5   1   1
  0.6771672356163738D+00   6   6   1   1
  0.6771672356163728D+00   7   7   1   1
  0.6801680581275577D+00   8   8   1   1
  0.6801680581275569D+00   9   9   1   1
 -0.1098406601556768D-01  10   1   1   1
  0.1883100517553552D-01  10   4   1   1
  0.6955725833966392D+00  10  10   1   1
  0.3295604043935497D-01  11   2   1   1
  0.2836805472172299D-01  11   3   1   1
  0.2896128565546779D+00  11   5   1   1
  0.6846962718074709D+00  11  11   1   1
  0.2965947423070695D+00  12   6   1   1
  0.6752883037833695D+00  12  12   1   1
  0.2965947423070694D+00  13   7   1   1
  0.6752883037833703D+00  13  13   1   1
 -0.2966491972130143D+00  14   8   1   1
  0.6737037700040708D+00  14  14   1   1
 -0.2966491972130142D+00  15   9   1   1
  0.6737037700040718D+00  15  15   1   1
  0.1458916664752641D+00  16   1   1   1
 -0.1624701749171509D+00  16   4   1   1
  0.2396429463216258D+00  16  10   1   1
  0.6453797356717846D+00  16  16   1   1
  0.2472304878764104D+00  17   2   1   1
  0.2617151480560524D+00  17   3   1   1
 -0.4358023765557866D-01  17   5   1   1
  0.2937505857430578D-02  17  11   1   1
  0.6155491417153593D+00  17  17   1   1
 -0.2017303575566816D+00  18   1   1   1
  0.2063839607638639D+00  18   4   1   1
  0.1698735586977513D+00  18  10   1   1
  0.2940473122878806D-01  18  16   1   1
  0.6463771451889329D+00  18  18   1   1
  0.2584274775736911D+01   2   1   2   1
  0.2639275887087882D+00   3   1   2   1
 -0.2648455263001840D+00   4   2   2   1
 -0.5339033782433633D+00   4   3   2   1
  0.4791128129337534D-02   5   1   2   1
  0.1478003902693548D-01   5   4   2   1
 -0.4935021403264805D+00   8   6   2   1
 -0.4935021403264796D+00   9   7   2   1
 -0.1283889435877930D-01  10   2   2   1
 -0.1197831912287070D-02  10   3   2   1
 -0.4923971439201938D+00  10   5   2   1
  0.3499088051396480D-01  11   1   2   1
 -0.3562636322961498D-01  11   4   2   1
 -0.3138299209539659D+00  11  10   2   1
 -0.2969805971092591D+00  12   8   2   1
 -0.2969805971092591D+00  13   9   2   1
  0.2920599430523835D+00  14   6   2   1
  0.4909501693130264D+00  14  12   2   1
  0.2920599430523833D+00  15   7   2   1
  0.4909501693130273D+00  15  13   2   1
  0.1441747455341949D+00  16   2   2   1
  0.1548686763638643D+00  16   3   2   1
 -0.2286158145146278D+00  16   5   2   1
 -0.3640453176497380D+00  16  11   2   1
  0.2469250174099916D+00  17   1   2   1
 -0.2619705224258826D+00  17   4   2   1
  0.2104836737632754D-01  17  10   2   1
  0.3164571599036248D+00  17  16   2   1
 -0.2029324881515712D+00  18   2   2   1
 -0.2095124623158230D+00  18   3   2   1
 -0.1637548349755690D+00  18   5   2   1
 -0.3090346478184957D+00  18  11   2   1
 -0.3011217086139681D+00  18  17   2   1
  0.2771682235316342D+01   2   2   2   2
  0.2639636211788476D+00   3   2   2   2
  0.7192585837714066D+00   3   3   2   2
 -0.2648829393419440D+00   4   1   2   2
  0.7212964591691333D+00   4   4   2   2
  0.3020414713919558D-02   5   2   2   2
  0.1069622475001778D-01   5   3   2   2
  0.6752208781088139D+00   5   5   2   2
  0.6771673655322327D+00   6   6   2   2
  0.6771673655322318D+00   7   7   2   2
  0.6801681936410664D+00   8   8   2   2
  0.6801681936410656D+00   9   9   2   2
 -0.1098756900915125D-01  10   1   2   2
  0.1882797423662267D-01  10   4   2   2
  0.6955724814100231D+00  10  10   2   2
  0.3296067032507979D-01  11   2   2   2
  0.2836607452338195D-01  11   3   2   2
  0.2896129686144714D+00  11   5   2   2
  0.6846959146291790D+00  11  11   2   2
  0.2965951110251010D+00  12   6   2   2
  0.6752886833776385D+00  12  12   2   2
  0.2965951110251010D+00  13   7   2   2
  0.6752886833776395D+00  13  13   2   2
 -0.2966495636520668D+00  14   8   2   2
  0.6737041557495190D+00  14  14   2   2
 -0.2966495636520667D+00  15   9   2   2
  0.6737041557495197D+00  15  15   2   2
  0.1458893952594052D+00  16   1   2   2
 -0.1624721305248821D+00  16   4   2   2
  0.2396442009647634D+00  16  10   2   2
  0.6453825045840381D+00  16  16   2   2
  0.2472320788158945D+00  17   2   2   2
  0.2617159495083888D+00  17   3   2   2
 -0.4358197756301234D-01  17   5   2   2
  0.2935063308335414D-02  17  11   2   2
  0.6155502089266852D+00  17  17   2   2
 -0.2017346600963384D+00  18   1   2   2
  0.2063832893040782D+00  18   4   2   2
  0.1698722848570044D+00  18  10   2   2
  0.2940390257896508D-01  18  16   2   2
  0.6463751669404452D+00  18  18   2   2
  0.4216632106787115D-01   3   1   3   1
 -0.4231565560096918D-01   4   2   3   1
 -0.1128605892915477D-01   4   3   3   1
  0.3442745662047635D-03   5   1   3   1
 -0.3418439888676306D-03   5   4   3   1
 -0.6917559821091001D-02   8   6   3   1
 -0.6917559821090975D-02   9   7   3   1
 -0.1619732621136673D-02  10   2   3   1
 -0.7195568654678954D-03  10   3   3   1
 -0.7018949153602604D-02  10   5   3   1
  0.5110637535708108D-02  11   1   3   1
 -0.1520803150008197D-02  11   4   3   1
 -0.9183779704132471D-02  11  10   3   1
 -0.8989368790185522D-02  12   8   3   1
 -0.8989368790185519D-02  13   9   3   1
  0.8925602528029160D-02  14   6   3   1
  0.1168271016926829D-01  14  12   3   1
  0.8925602528029153D-02  15   7   3   1
  0.1168271016926831D-01  15  13   3   1
  0.2367856042643936D-01  16   2   3   1
  0.6299656903246758D-02  16   3   3   1
 -0.7027563499241185D-02  16   5   3   1
 -0.8470484500092199D-02  16  11   3   1
  0.3988237051796652D-01  17   1   3   1
 -0.1085341855249180D-01  17   4   3   1
  0.6385493293888936D-03  17  10   3   1
  0.7276769918433712D-02  17  16   3   1
 -0.3241320166689331D-01  18   2   3   1
 -0.8892710099756266D-02  18   3   3   1
 -0.5297253625133749D-02  18   5   3   1
 -0.7969584288203501D-02  18  11   3   1
 -0.7748605242804595D-02  18  17   3   1
  0.4216696804184163D-01   3   2   3   2
  0.1127835094759803D-01   3   3   3   2
 -0.4231567300138617D-01   4   1   3   2
  0.1135492531429158D-01   4   4   3   2
  0.3440080792543328D-03   5   2   3   2
  0.3761852824713054D-03   5   3   3   2
  0.6788411677447247D-02   5   5   3   2
  0.6907786093228033D-02   6   6   3   2
  0.6907786093228003D-02   7   7   3   2
  0.6986374584201658D-02   8   8   3   2
  0.6986374584201632D-02   9   9   3   2
 -0.1618103384273626D-02  10   1   3   2
  0.6967096234597549D-03  10   4   3   2
  0.7336989556592238D-02  10  10   3   2
  0.5110447089665455D-02  11   2   3   2
  0.1551418399343143D-02  11   3   3   2
  0.8798298557493194D-02  11   5   3   2
  0.1173528390890821D-01  11  11   3   2
  0.8940096180591842D-02  12   6   3   2
  0.1172778130997140D-01  12  12   3   2
  0.8940096180591833D-02  13   7   3   2
  0.1172778130997143D-01  13  13   3   2
 -0.8979229511234196D-02  14   8   3   2
  0.1169563605662535D-01  14  14   3   2
 -0.8979229511234185D-02  15   9   3   2
  0.1169563605662537D-01  15  15   3   2
  0.2368015025911796D-01  16   1   3   2
 -0.6354298173460892D-02  16   4   3   2
  0.7106306967151663D-02  16  10   3   2
  0.1117185695828507D-01  16  16   3   2
  0.3988301606247211D-01  17   2   3   2
  0.1081132647842423D-01  17   3   3   2
 -0.9333880214745971D-03  17   5   3   2
  0.4173588253694651D-04  17  11   3   2
  0.1066528720266376D-01  17  17   3   2
 -0.3241202251897892D-01  18   1   3   2
  0.8902711352695337D-02  18   4   3   2
  0.5767028727529830D-02  18  10   3   2
  0.4729179786140784D-03  18  16   3   2
  0.1108076606891646D-01  18  18   3   2
  0.5301672239824540D+00   3   3   3   3
 -0.1131720497336305D-01   4   1   3   3
  0.5309753744949427D+00   4   4   3   3
 -0.8640294018919361D-04   5   2   3   3
  0.7639540381630535D-02   5   3   3   3
  0.5093461763858195D+00   5   5   3   3
  0.5082993137286659D+00   6   6   3   3
  0.5082993137286654D+00   7   7   3   3
  0.5096253859811215D+00   8   8   3   3
  0.5096253859811213D+00   9   9   3   3
 -0.2352653589278274D-03  10   1   3   3
  0.1113086675720123D-01  10   4   3   3
  0.5181490097199208D+00  10  10   3   3
  0.1086184465513517D-02  11   2   3   3
  0.7974974384243027D-02  11   3   3   3
  0.1134997076938360D+00  11   5   3   3
  0.4696457379149941D+00  11  11   3   3
  0.1179642947606307D+00  12   6   3   3
  0.4598371737089325D+00  12  12   3   3
  0.1179642947606308D+00  13   7   3   3
  0.4598371737089328D+00  13  13   3   3
 -0.1175841382332986D+00  14   8   3   3
  0.4591276708790479D+00  14  14   3   3
 -0.1175841382332986D+00  15   9   3   3
  0.4591276708790482D+00  15  15   3   3
  0.6052696666719633D-02  16   1   3   3
 -0.6511079541471398D-01  16   4   3   3
  0.9545985109246646D-01  16  10   3   3
  0.4497088312726580D+00  16  16   3   3
  0.9946751438006106D-02  17   2   3   3
  0.1002707261126459D+00  17   3   3   3
 -0.2138832064967326D-01  17   5   3   3
  0.9105279853978382D-02  17  11   3   3
  0.4517796617198377D+00  17  17   3   3
 -0.7933397748514199D-02  18   1   3   3
  0.7587064611726282D-01  18   4   3   3
  0.6090204045344003D-01  18  10   3   3
  0.6637125250734899D-02  18  16   3   3
  0.4679174251492005D+00  18  18   3   3
  0.4246521271325297D-01   4   1   4   1
 -0.1139278057660172D-01   4   4   4   1
 -0.2731193241938989D-03   5   2   4   1
 -0.4644294713909505D-03   5   3   4   1
 -0.6817670577343719D-02   5   5   4   1
 -0.6934466475053040D-02   6   6   4   1
 -0.6934466475053011D-02   7   7   4   1
 -0.7013221480331588D-02   8   8   4   1
 -0.7013221480331564D-02   9   9   4   1
  0.1548967828156767D-02  10   1   4   1
 -0.7880877430110117D-03  10   4   4   1
 -0.7371630749591415D-02  10  10   4   1
 -0.5034104926322042D-02  11   2   4   1
 -0.1610208446231160D-02  11   3   4   1
 -0.8832553517657847D-02  11   5   4   1
 -0.1179833686884069D-01  11  11   4   1
 -0.8968175270261530D-02  12   6   4   1
 -0.1177058065118527D-01  12  12   4   1
 -0.8968175270261522D-02  13   7   4   1
 -0.1177058065118530D-01  13  13   4   1
  0.9007572823801463D-02  14   8   4   1
 -0.1173811097494667D-01  14  14   4   1
  0.9007572823801453D-02  15   9   4   1
 -0.1173811097494669D-01  15  15   4   1
 -0.2384091138998259D-01  16   1   4   1
  0.6331510071039786D-02  16   4   4   1
 -0.7104911005172423D-02  16  10   4   1
 -0.1114490364729904D-01  16  16   4   1
 -0.4003637349615612D-01  17   2   4   1
 -0.1083828148326751D-01  17   3   4   1
  0.8937713417008671D-03  17   5   4   1
 -0.1106984510686115D-03  17  11   4   1
 -0.1068502341240242D-01  17  17   4   1
  0.3247144991435679D-01  18   1   4   1
 -0.8959288518046735D-02  18   4   4   1
 -0.5823555524131402D-02  18  10   4   1
 -0.4975137203248048D-03  18  16   4   1
 -0.1118791051048748D-01  18  18   4   1
  0.4246583401402676D-01   4   2   4   2
  0.1131494992681224D-01   4   3   4   2
 -0.2728965200175392D-03   5   1   4   2
  0.4251989701989284D-03   5   4   4   2
  0.6934531341554881D-02   8   6   4   2
  0.6934531341554856D-02   9   7   4   2
  0.1550114802731786D-02  10   2   4   2
  0.8059438468569560D-03  10   3   4   2
  0.7041010812393129D-02  10   5   4   2
 -0.5033686859266322D-02  11   1   4   2
  0.1582806277179628D-02  11   4   4   2
  0.9224578609374073D-02  11  10   4   2
  0.9019680339306186D-02  12   8   4   2
  0.9019680339306181D-02  13   9   4   2
 -0.8955787982800487D-02  14   6   4   2
 -0.1171654658067035D-01  14  12   4   2
 -0.8955787982800480D-02  15   7   4   2
 -0.1171654658067037D-01  15  13   4   2
 -0.2384020296380640D-01  16   2   4   2
 -0.6275639816142161D-02  16   3   4   2
  0.7024471684030913D-02  16   5   4   2
  0.8464219173415527D-02  16  11   4   2
 -0.4003636416800081D-01  17   1   4   2
  0.1088183512657264D-01  17   4   4   2
 -0.5920302406634585D-03  17  10   4   2
 -0.7238273513849912D-02  17  16   4   2
  0.3247268772351131D-01  18   2   4   2
  0.8952733409679453D-02  18   3   4   2
  0.5354353953006610D-02  18   5   4   2
  0.8051186924085726D-02  18  11   4   2
  0.7800336102536356D-02  18  17   4   2
  0.3456262084767618D+00   4   3   4   3
 -0.1806588555077505D-02   5   1   4   3
 -0.1752393517339740D-01   5   4   4   3
  0.3251388431738882D+00   8   6   4   3
  0.3251388431738879D+00   9   7   4   3
  0.2191732903691973D-02  10   2   4   3
 -0.7877146407783543D-02  10   3   4   3
  0.3222828275437292D+00  10   5   4   3
 -0.3267821372105239D-02  11   1   4   3
  0.1579908592206841D-01  11   4   4   3
  0.1309279561089336D+00  11  10   4   3
  0.1177214105053916D+00  12   8   4   3
  0.1177214105053918D+00  13   9   4   3
 -0.1143033514607963D+00  14   6   4   3
 -0.2771686546901507D+00  14  12   4   3
 -0.1143033514607962D+00  15   7   4   3
 -0.2771686546901510D+00  15  13   4   3
 -0.4260522220294504D-02  16   2   4   3
 -0.5883167473475899D-01  16   3   4   3
  0.8696541719524362D-01  16   5   4   3
  0.2053774897274452D+00  16  11   4   3
 -0.9660229816130034D-02  17   1   4   3
  0.1001325949015813D+00  17   4   4   3
 -0.3163736929013549D-02  17  10   4   3
 -0.2008429921680366D+00  17  16   4   3
  0.9223135276084395D-02  18   2   4   3
  0.7917556351688990D-01  18   3   4   3
  0.6262056703491886D-01  18   5   4   3
  0.1691951372311001D+00  18  11   4   3
  0.1868247458121019D+00  18  17   4   3
  0.5318222798691279D+00   4   4   4   4
  0.1727422204498611D-03   5   2   4   4
  0.6100197851949217D-02   5   3   4   4
  0.5098113161321089D+00   5   5   4   4
  0.5089976615998861D+00   6   6   4   4
  0.5089976615998858D+00   7   7   4   4
  0.5103371609321583D+00   8   8   4   4
  0.5103371609321581D+00   9   9   4   4
 -0.5059729759702404D-03  10   1   4   4
  0.9611066930496764D-02  10   4   4   4
  0.5186826207936032D+00  10  10   4   4
  0.1400239952508776D-02  11   2   4   4
  0.7823553849145657D-02  11   3   4   4
  0.1142850636202756D+00  11   5   4   4
  0.4695466153857889D+00  11  11   4   4
  0.1185901708302571D+00  12   6   4   4
  0.4603657324984419D+00  12  12   4   4
  0.1185901708302571D+00  13   7   4   4
  0.4603657324984421D+00  13  13   4   4
 -0.1181967039617707D+00  14   8   4   4
  0.4596743536469028D+00  14  14   4   4
 -0.1181967039617707D+00  15   9   4   4
  0.4596743536469032D+00  15  15   4   4
  0.5844457338094479D-02  16   1   4   4
 -0.6561831348117367D-01  16   4   4   4
  0.9596623552456025D-01  16  10   4   4
  0.4513298273719589D+00  16  16   4   4
  0.9973775243676212D-02  17   2   4   4
  0.1008718615889013D+00  17   3   4   4
 -0.2138463059271250D-01  17   5   4   4
  0.7862247494387749D-02  17  11   4   4
  0.4525365760161549D+00  17  17   4   4
 -0.8164159931885955D-02  18   1   4   4
  0.7624448242374061D-01  18   4   4   4
  0.6132664478747563D-01  18  10   4   4
  0.6224008118769497D-02  18  16   4   4
  0.4670891361408009D+00  18  18   4   4
  0.1681507530794897D-01   5   1   5   1
  0.1789944521324213D-01   5   4   5   1
 -0.9599517579330784D-03   8   6   5   1
 -0.9599517579330780D-03   9   7   5   1
 -0.1746578943341532D-01  10   2   5   1
  0.1828031238899088D-01  10   3   5   1
 -0.6877512058244705D-04  10   5   5   1
  0.2213934454386784D-01  11   1   5   1
  0.1211604585765433D-01  11   4   5   1
  0.1974065340486296D-02  11  10   5   1
 -0.1617535414505442D-03  12   8   5   1
 -0.1617535414505444D-03  13   9   5   1
  0.1476292600833872D-03  14   6   5   1
  0.1004352892659846D-02  14  12   5   1
  0.1476292600833869D-03  15   7   5   1
  0.1004352892659847D-02  15  13   5   1
 -0.1786649269445975D-01  16   2   5   1
  0.9822146234633183D-02  16   3   5   1
 -0.5785267935648637D-02  16   5   5   1
 -0.7629345119505459D-02  16  11   5   1
 -0.2599365561862302D-02  17   1   5   1
 -0.2032224263641759D-02  17   4   5   1
  0.1032931341234640D-01  17  10   5   1
  0.1380890394903495D-01  17  16   5   1
 -0.1315656313772028D-01  18   2   5   1
  0.6150020191844806D-02  18   3   5   1
  0.8204264088901042D-02  18   5   5   1
  0.1214803929349662D-01  18  11   5   1
  0.5813613708124972D-02  18  17   5   1
  0.1684829948895022D-01   5   2   5   2
 -0.1827451060889331D-01   5   3   5   2
 -0.1480047548084079D-02   5   5   5   2
 -0.7681948243080898D-03   6   6   5   2
 -0.7681948243080901D-03   7   7   5   2
 -0.7506739502244633D-03   8   8   5   2
 -0.7506739502244637D-03   9   9   5   2
 -0.1750087323849588D-01  10   1   5   2
 -0.1871996421611982D-01  10   4   5   2
 -0.2257899091899682D-02  10  10   5   2
  0.2217795494570455D-01  11   2   5   2
 -0.1191237291648841D-01  11   3   5   2
 -0.1268074279381036D-02  11   5   5   2
 -0.5142807037101692D-02  11  11   5   2
  0.1112099551353411D-03  12   6   5   2
 -0.6919734743201954D-03  12  12   5   2
  0.1112099551353410D-03  13   7   5   2
 -0.6919734743201949D-03  13  13   5   2
 -0.8318730113357760D-04  14   8   5   2
 -0.6434576743087766D-03  14  14   5   2
 -0.8318730113357749D-04  15   9   5   2
 -0.6434576743087766D-03  15  15   5   2
 -0.1789764109201554D-01  16   1   5   2
 -0.9774924210722867D-02  16   4   5   2
  0.5594796609567072D-02  16  10   5   2
  0.1368161702123152D-01  16  16   5   2
 -0.2605396172994078D-02  17   2   5   2
  0.1970264019712765D-02  17   3   5   2
 -0.9717476437649201D-02  17   5   5   2
 -0.1461957900610821D-01  17  11   5   2
  0.3562347856487443D-02  17  17   5   2
 -0.1317994588602807D-01  18   1   5   2
 -0.6081371847016441D-02  18   4   5   2
 -0.8567583182873383D-02  18  10   5   2
 -0.5013239273758531D-02  18  16   5   2
 -0.1473464502883163D-01  18  18   5   2
  0.8594499623343251D-01   5   3   5   3
  0.1448899260808930D-01   5   5   5   3
  0.1056051494135255D-01   6   6   5   3
  0.1056051494135255D-01   7   7   5   3
  0.1037259466599163D-01   8   8   5   3
  0.1037259466599164D-01   9   9   5   3
  0.1892377557724772D-01  10   1   5   3
  0.8702063559021321D-01  10   4   5   3
  0.1598333525305499D-01  10  10   5   3
 -0.2176490047358613D-01  11   2   5   3
  0.2624786893379221D-01  11   3   5   3
 -0.2246659719294785D-03  11   5   5   3
  0.3175992074013150D-01  11  11   5   3
  0.1673536911572853D-03  12   6   5   3
  0.1046663099204084D-01  12  12   5   3
  0.1673536911572845D-03  13   7   5   3
  0.1046663099204084D-01  13  13   5   3
 -0.5039294378930514D-03  14   8   5   3
  0.9869867684606836D-02  14  14   5   3
 -0.5039294378930536D-03  15   9   5   3
  0.9869867684606837D-02  15  15   5   3
  0.1793010104950392D-01  16   1   5   3
  0.1982804331663549D-01  16   4   5   3
 -0.6459501373797387D-02  16  10   5   3
 -0.5170940757357949D-01  16  16   5   3
  0.3195026560639019D-02  17   2   5   3
 -0.3574283462078431D-02  17   3   5   3
  0.1110329606775187D-01  17   5   5   3
  0.6234863136455775D-01  17  11   5   3
 -0.7845590493973938D-02  17  17   5   3
  0.1234258228151471D-01  18   1   5   3
  0.1178498045276756D-01  18   4   5   3
  0.1139110483325168D-01  18  10   5   3
  0.2074713778198509D-01  18  16   5   3
  0.7190620215836184D-01  18  18   5   3
  0.8102705970217149D-01   5   4   5   4
 -0.1313358166947947D-01   8   6   5   4
 -0.1313358166947947D-01   9   7   5   4
 -0.1853394618581169D-01  10   2   5   4
  0.8204753263328549D-01  10   3   5   4
 -0.1129869834333415D-01  10   5   5   4
  0.2133320261649104D-01  11   1   5   4
  0.2838399777626924D-01  11   4   5   4
  0.3404630713397351D-02  11  10   5   4
 -0.1158302971252894D-02  12   8   5   4
 -0.1158302971252897D-02  13   9   5   4
  0.9803995649442726D-03  14   6   5   4
  0.1254595107020324D-01  14  12   5   4
  0.9803995649442709D-03  15   7   5   4
  0.1254595107020324D-01  15  13   5   4
 -0.1756320929879097D-01  16   2   5   4
  0.2152330256003452D-01  16   3   5   4
 -0.8507953301644718D-02  16   5   5   4
 -0.3779122880889926D-01  16  11   5   4
 -0.3102965482352294D-02  17   1   5   4
 -0.4334140591636401D-02  17   4   5   4
  0.1560685220055815D-01  17  10   5   4
  0.6216921017225330D-01  17  16   5   4
 -0.1211369577250486D-01  18   2   5   4
  0.1204776878526844D-01  18   3   5   4
  0.1177958987492657D-01  18   5   5   4
  0.4126276496822417D-01  18  11   5   4
  0.1762086006173072D-01  18  17   5   4
  0.5214170932132667D+00   5   5   5   5
  0.4773535123951481D+00   6   6   5   5
  0.4773535123951477D+00   7   7   5   5
  0.4784080264338113D+00   8   8   5   5
  0.4784080264338110D+00   9   9   5   5
  0.1342303324415118D-02  10   1   5   5
  0.1708852511841017D-01  10   4   5   5
  0.5296452869719330D+00  10  10   5   5
 -0.1071054685854090D-02  11   2   5   5
  0.7446578253961872D-02  11   3   5   5
  0.1098462975201919D+00  11   5   5   5
  0.4833834055057831D+00  11  11   5   5
  0.1036908894403855D+00  12   6   5   5
  0.4387169123570369D+00  12  12   5   5
  0.1036908894403856D+00  13   7   5   5
  0.4387169123570372D+00  13  13   5   5
 -0.1035695518975759D+00  14   8   5   5
  0.4377795826529527D+00  14  14   5   5
 -0.1035695518975758D+00  15   9   5   5
  0.4377795826529529D+00  15  15   5   5
  0.4871728563763901D-02  16   1   5   5
 -0.5769713141649525D-01  16   4   5   5
  0.9361720223452062D-01  16  10   5   5
  0.4475525117244869D+00  16  16   5   5
  0.5953372250215685D-02  17   2   5   5
  0.8948157262700550D-01  17   3   5   5
 -0.2148180290939181D-01  17   5   5   5
  0.1232684675886454D-01  17  11   5   5
  0.4392902904911536D+00  17  17   5   5
 -0.3581290776483399D-02  18   1   5   5
  0.6816692235392469D-01  18   4   5   5
  0.5892043353749982D-01  18  10   5   5
  0.1913698011649967D-01  18  16   5   5
  0.4694814071836140D+00  18  18   5   5
  0.1714965445234838D-01   6   1   6   1
  0.1832189726770675D-01   6   4   6   1
 -0.1724827666164053D-01   8   2   6   1
  0.1834000684658332D-01   8   3   6   1
  0.2308770059930703D-03   8   5   6   1
  0.7064828975116992D-03  10   6   6   1
  0.1508890533368954D-02  11   8   6   1
  0.2254893132314005D-01  12   1   6   1
  0.1216640861317883D-01  12   4   6   1
  0.6362802324630350D-03  12  10   6   1
  0.2251883505070924D-01  14   2   6   1
 -0.1201618410180433D-01  14   3   6   1
 -0.2247627191948265D-03  14   5   6   1
 -0.1965960049491499D-02  14  11   6   1
 -0.5987794589003794D-02  16   6   6   1
 -0.8698993111837897D-02  16  12   6   1
  0.1021964247725964D-01  17   8   6   1
 -0.1479378861439925D-01  17  14   6   1
  0.8207489767454218D-02  18   6   6   1
  0.1215501947240472D-01  18  12   6   1
  0.1716664377570398D-01   6   2   6   2
 -0.1848282319975195D-01   6   3   6   2
 -0.3064621700280149D-03   6   5   6   2
 -0.1726562009018769D-01   8   1   6   2
 -0.1859493099309512D-01   8   4   6   2
 -0.7695464779753499D-03  10   8   6   2
 -0.1412630733454167D-02  11   6   6   2
  0.2256824927242437D-01  12   2   6   2
 -0.1203939482875627D-01  12   3   6   2
 -0.1466060099870058D-03  12   5   6   2
 -0.2136900022227549D-02  12  11   6   2
  0.2253910791397559D-01  14   1   6   2
  0.1199728080004414D-01  14   4   6   2
  0.5921732886478244D-03  14  10   6   2
  0.5995597304964220D-02  16   8   6   2
 -0.8773358215256878D-02  16  14   6   2
 -0.1003067372550783D-01  17   6   6   2
 -0.1506912815415414D-01  17  12   6   2
 -0.8123562883056077D-02  18   8   6   2
  0.1241976465050760D-01  18  14   6   2
  0.8540229955429475D-01   6   3   6   3
  0.1279924852158265D-02   6   5   6   3
  0.1858132331262257D-01   8   1   6   3
  0.8571399432915296D-01   8   4   6   3
  0.2879350486649304D-02  10   8   6   3
  0.1759440807116243D-02  11   6   6   3
 -0.2201782142332837D-01  12   2   6   3
  0.2612023854441782D-01  12   3   6   3
 -0.1804981903563207D-03  12   5   6   3
  0.9116979461374641D-02  12  11   6   3
 -0.2197442453977291D-01  14   1   6   3
 -0.2578156721837584D-01  14   4   6   3
 -0.1475682632551289D-02  14  10   6   3
 -0.8508675782496965D-02  16   8   6   3
  0.3663436742813517D-01  16  14   6   3
  0.1290594354711099D-01  17   6   6   3
  0.6301612647750354D-01  17  12   6   3
  0.9329776799870203D-02  18   8   6   3
 -0.5245187944316888D-01  18  14   6   3
  0.8318474248165730D-01   6   4   6   4
 -0.1842167078461785D-01   8   2   6   4
  0.8323663348649463D-01   8   3   6   4
  0.2053895613697580D-03   8   5   6   4
  0.1981841087286582D-02  10   6   6   4
  0.2826988049485232D-02  11   8   6   4
  0.2183731274538221D-01  12   1   6   4
  0.2730911510598469D-01  12   4   6   4
  0.1975538704437175D-02  12  10   6   4
  0.2178973279970493D-01  14   2   6   4
 -0.2653120081556690D-01  14   3   6   4
 -0.7424933457642903D-03  14   5   6   4
 -0.6992009615364923D-02  14  11   6   4
 -0.8795231626372265D-02  16   6   6   4
 -0.3570666568458394D-01  16  12   6   4
  0.1470657291608025D-01  17   8   6   4
 -0.6014237567282485D-01  17  14   6   4
  0.1085292826962349D-01  18   6   6   4
  0.4898938420840210D-01  18  12   6   4
  0.2103843719379580D-01   6   5   6   5
  0.3075171262308774D-03   8   1   6   5
  0.1080524942043935D-02   8   4   6   5
  0.2141403810693836D-01  10   8   6   5
  0.6102636748525334D-02  11   6   6   5
 -0.3650166323836061D-03  12   2   6   5
  0.1119629302835855D-03  12   3   6   5
  0.5641124108009331D-02  12   5   6   5
  0.1614102674687193D-01  12  11   6   5
 -0.3656861919466707D-03  14   1   6   5
 -0.1884329169614401D-03  14   4   6   5
 -0.6082773426977232D-02  14  10   6   5
  0.4507318187589381D-02  16   8   6   5
 -0.1234892253080680D-01  16  14   6   5
 -0.8260644306214665D-03  17   6   6   5
 -0.8105725876378090D-03  17  12   6   5
  0.2525203193521630D-02  18   8   6   5
 -0.1053382784210191D-01  18  14   6   5
  0.5183087984397615D+00   6   6   6   6
  0.4760919210867022D+00   7   7   6   6
  0.5196764545188794D+00   8   8   6   6
  0.4772611420761100D+00   9   9   6   6
  0.6021760730449910D-03  10   1   6   6
  0.1397151533569659D-01  10   4   6   6
  0.4852136406470552D+00  10  10   6   6
 -0.2136795858099067D-03  11   2   6   6
  0.8006612491590796D-02  11   3   6   6
  0.1008849573997116D+00  11   5   6   6
  0.4470905682462064D+00  11  11   6   6
  0.1172045294980416D+00  12   6   6   6
  0.4689976097390363D+00  12  12   6   6
  0.1051369186418743D+00  13   7   6   6
  0.4370768135696432D+00  13  13   6   6
 -0.1167323475601722D+00  14   8   6   6
  0.4684431574146642D+00  14  14   6   6
 -0.1048353393814232D+00  15   9   6   6
  0.4364473605460151D+00  15  15   6   6
  0.4242725584790705D-02  16   1   6   6
 -0.5877663542394457D-01  16   4   6   6
  0.8501061209482971D-01  16  10   6   6
  0.4281282993025485D+00  16  16   6   6
  0.5942986708610657D-02  17   2   6   6
  0.9105278568686506D-01  17   3   6   6
 -0.1918188329576720D-01  17   5   6   6
  0.1216932866979217D-01  17  11   6   6
  0.4376004754201859D+00  17  17   6   6
 -0.4151366255245318D-02  18   1   6   6
  0.6906707471297913D-01  18   4   6   6
  0.5440665847669184D-01  18  10   6   6
  0.2961164702239477D-02  18  16   6   6
  0.4535731926505222D+00  18  18   6   6
  0.1714965445234831D-01   7   1   7   1
  0.1832189726770669D-01   7   4   7   1
 -0.1724827666164047D-01   9   2   7   1
  0.1834000684658326D-01   9   3   7   1
  0.2308770059930695D-03   9   5   7   1
  0.7064828975116966D-03  10   7   7   1
  0.1508890533368947D-02  11   9   7   1
  0.2254893132314003D-01  13   1   7   1
  0.1216640861317883D-01  13   4   7   1
  0.6362802324630347D-03  13  10   7   1
  0.2251883505070922D-01  15   2   7   1
 -0.1201618410180432D-01  15   3   7   1
 -0.2247627191948263D-03  15   5   7   1
 -0.1965960049491495D-02  15  11   7   1
 -0.5987794589003766D-02  16   7   7   1
 -0.8698993111837892D-02  16  13   7   1
  0.1021964247725959D-01  17   9   7   1
 -0.1479378861439923D-01  17  15   7   1
  0.8207489767454178D-02  18   7   7   1
  0.1215501947240471D-01  18  13   7   1
  0.1716664377570391D-01   7   2   7   2
 -0.1848282319975189D-01   7   3   7   2
 -0.3064621700280140D-03   7   5   7   2
 -0.1726562009018762D-01   9   1   7   2
 -0.1859493099309507D-01   9   4   7   2
 -0.7695464779753475D-03  10   9   7   2
 -0.1412630733454160D-02  11   7   7   2
  0.2256824927242435D-01  13   2   7   2
 -0.1203939482875628D-01  13   3   7   2
 -0.1466060099870060D-03  13   5   7   2
 -0.2136900022227546D-02  13  11   7   2
  0.2253910791397556D-01  15   1   7   2
  0.1199728080004414D-01  15   4   7   2
  0.5921732886478243D-03  15  10   7   2
  0.5995597304964193D-02  16   9   7   2
 -0.8773358215256863D-02  16  15   7   2
 -0.1003067372550778D-01  17   7   7   2
 -0.1506912815415412D-01  17  13   7   2
 -0.8123562883056041D-02  18   9   7   2
  0.1241976465050758D-01  18  15   7   2
  0.8540229955429465D-01   7   3   7   3
  0.1279924852158265D-02   7   5   7   3
  0.1858132331262251D-01   9   1   7   3
  0.8571399432915286D-01   9   4   7   3
  0.2879350486649300D-02  10   9   7   3
  0.1759440807116224D-02  11   7   7   3
 -0.2201782142332837D-01  13   2   7   3
  0.2612023854441791D-01  13   3   7   3
 -0.1804981903563191D-03  13   5   7   3
  0.9116979461374644D-02  13  11   7   3
 -0.2197442453977290D-01  15   1   7   3
 -0.2578156721837589D-01  15   4   7   3
 -0.1475682632551291D-02  15  10   7   3
 -0.8508675782496901D-02  16   9   7   3
  0.3663436742813518D-01  16  15   7   3
  0.1290594354711087D-01  17   7   7   3
  0.6301612647750354D-01  17  13   7   3
  0.9329776799870109D-02  18   9   7   3
 -0.5245187944316890D-01  18  15   7   3
  0.8318474248165721D-01   7   4   7   4
 -0.1842167078461780D-01   9   2   7   4
  0.8323663348649454D-01   9   3   7   4
  0.2053895613697561D-03   9   5   7   4
  0.1981841087286577D-02  10   7   7   4
  0.2826988049485219D-02  11   9   7   4
  0.2183731274538221D-01  13   1   7   4
  0.2730911510598477D-01  13   4   7   4
  0.1975538704437178D-02  13  10   7   4
  0.2178973279970493D-01  15   2   7   4
 -0.2653120081556695D-01  15   3   7   4
 -0.7424933457642906D-03  15   5   7   4
 -0.6992009615364928D-02  15  11   7   4
 -0.8795231626372186D-02  16   7   7   4
 -0.3570666568458395D-01  16  13   7   4
  0.1470657291608012D-01  17   9   7   4