 &FCI NORB=18,NELEC=10,MS2=0
  ORBSYM=1,1,1,1,1,1,1,1,1,1,1,1,1,1,1,1,1,1,
  ISYM=1 UHF=.FALSE.
 &END
  0.5972199764759217D+01   1   1   1   1
 -0.6161039553351908D+00   2   1   1   1
  0.1455821268661817D+01   2   2   1   1
  0.1416410507515908D+01   3   3   1   1
  0.1416410506145727D+01   4   4   1   1
  0.1416410504635152D+01   5   5   1   1
  0.9419433943890756D-01   6   3   1   1
  0.3950611422704046D-02   6   4   1   1
 -0.8183154925021289D-04   6   5   1   1
  0.1879401680669165D+00   6   6   1   1
  0.3951260873173463D-02   7   3   1   1
 -0.9418897005814961D-01   7   4   1   1
  0.1006582679550842D-02   7   5   1   1
  0.1879401681882445D+00   7   7   1   1
  0.3957478065821419D-04   8   3   1   1
  0.1009127853038213D-02   8   4   1   1
  0.9427177739982984D-01   8   5   1   1
  0.1879401683307302D+00   8   8   1   1
  0.9115045170107300D-01   9   1   1   1
 -0.1293475555899867D+00   9   2   1   1
  0.2802240699175746D+00   9   9   1   1
  0.6488488121588621D+00  10   3   1   1
 -0.1446192123607691D-01  10   4   1   1
 -0.4323895986166037D-02  10   5   1   1
  0.9687205995275505D-01  10   6   1   1
  0.6221485041569167D-02  10   7   1   1
 -0.6290969478993727D-03  10   8   1   1
  0.1178489167355375D+01  10  10   1   1
  0.1448494176051469D-01  11   3   1   1
  0.6488535950203316D+00  11   4   1   1
  0.3438486374084097D-02  11   5   1   1
  0.6230868429653795D-02  11   6   1   1
 -0.9686103563192840D-01  11   7   1   1
  0.1553957296999366D-02  11   8   1   1
  0.1178489168607684D+01  11  11   1   1
  0.4246140051768232D-02  12   3   1   1
 -0.3534057138938416D-02  12   4   1   1
  0.6490008516599864D+00  12   5   1   1
  0.5281251757343636D-03  12   6   1   1
  0.1591109636096040D-02  12   7   1   1
  0.9705919993229369D-01  12   8   1   1
  0.1178489169974291D+01  12  12   1   1
  0.5445500508212482D+00  13   1   1   1
 -0.5743695034753538D+00  13   2   1   1
  0.1560230966594785D+00  13   9   1   1
  0.1151858678162847D+01  13  13   1   1
  0.1262224729929436D+01  14  14   1   1
  0.1262224729929440D+01  15  15   1   1
  0.1262224729929437D+01  16  16   1   1
  0.1262224729929438D+01  17  17   1   1
  0.1262224729929438D+01  18  18   1   1
  0.1031968116548092D+00   2   1   2   1
 -0.2878627544885173D-01   2   2   2   1
 -0.1992643697006492D-01   3   3   2   1
 -0.1992643692638530D-01   4   4   2   1
 -0.1992643687838744D-01   5   5   2   1
 -0.1903780170537234D-02   6   3   2   1
 -0.7984657825389542D-04   6   4   2   1
  0.1653915974028827D-05   6   5   2   1
 -0.1822513957961860D-03   6   6   2   1
 -0.7985970368673328D-04   7   3   2   1
  0.1903671644338293D-02   7   4   2   1
 -0.2034423946700742D-04   7   5   2   1
 -0.1822513982302393D-03   7   7   2   1
 -0.7998567571994628D-06   8   3   2   1
 -0.2039568036808547D-04   8   4   2   1
 -0.1905345274351275D-02   8   5   2   1
 -0.1822514010904805D-03   8   8   2   1
 -0.1545233175150376D-01   9   1   2   1
  0.4345826326471113D-02   9   2   2   1
 -0.6566036730104525D-03   9   9   2   1
 -0.2152366795423963D-01  10   3   2   1
  0.4797320818517713D-03  10   4   2   1
  0.1434326454206641D-03  10   5   2   1
 -0.2056246545412802D-02  10   6   2   1
 -0.1320598245868996D-03  10   7   2   1
  0.1335347777499203D-04  10   8   2   1
 -0.2353915760774909D-01  10  10   2   1
 -0.4804957202128573D-03  11   3   2   1
 -0.2152382660152355D-01  11   4   2   1
 -0.1140617599345969D-03  11   5   2   1
 -0.1322589989480655D-03  11   6   2   1
  0.2056012543986618D-02  11   7   2   1
 -0.3298494154696513D-04  11   8   2   1
 -0.2353915764907661D-01  11  11   2   1
 -0.1408533187700119D-03  12   3   2   1
  0.1172320413798304D-03  12   4   2   1
 -0.2152871140025483D-01  12   5   2   1
 -0.1121020814123933D-04  12   6   2   1
 -0.3377355244552031D-04  12   7   2   1
 -0.2060218868019174D-02  12   8   2   1
 -0.2353915769418008D-01  12  12   2   1
 -0.9199139541279648D-01  13   1   2   1
  0.2605874711276749D-01  13   2   2   1
 -0.3929190449867291D-02  13   9   2   1
 -0.2400668527502387D-01  13  13   2   1
 -0.3721907754769104D-02  14  14   2   1
 -0.3721907754769115D-02  15  15   2   1
 -0.3721907754769106D-02  16  16   2   1
 -0.3721907754769108D-02  17  17   2   1
 -0.3721907754769108D-02  18  18   2   1
  0.1021427512292743D+01   2   2   2   2
  0.9920445984118396D+00   3   3   2   2
  0.9920445978349407D+00   4   4   2   2
  0.9920445971968080D+00   5   5   2   2
  0.5448866452039457D-01   6   3   2   2
  0.2285312912971945D-02   6   4   2   2
 -0.4733710392097897D-04   6   5   2   2
  0.1841931629060281D+00   6   6   2   2
  0.2285688615826724D-02   7   3   2   2
 -0.5448555856903159D-01   7   4   2   2
  0.5822785669326022D-03   7   5   2   2
  0.1841931629754943D+00   7   7   2   2
  0.2289279079566620D-04   8   3   2   2
  0.5837508771809388D-03   8   4   2   2
  0.5453346028017556D-01   8   5   2   2
  0.1841931630571421D+00   8   8   2   2
  0.4035203507935881D-02   9   1   2   2
 -0.6693596745429305D-01   9   2   2   2
  0.2709667936447063D+00   9   9   2   2
  0.2618667468786287D+00  10   3   2   2
 -0.5836638965306975D-02  10   4   2   2
 -0.1745066888276778D-02  10   5   2   2
  0.5993667210106585D-01  10   6   2   2
  0.3849356635912720D-02  10   7   2   2
 -0.3892347185773908D-03  10   8   2   2
  0.7855302257668616D+00  10  10   2   2
  0.5845929748863538D-02  11   3   2   2
  0.2618686772693269D+00  11   4   2   2
  0.1387727368393873D-02  11   5   2   2
  0.3855162348450477D-02  11   6   2   2
 -0.5992985102932931D-01  11   7   2   2
  0.9614643319093576D-03  11   8   2   2
  0.7855302262761342D+00  11  11   2   2
  0.1713685630773897D-02  12   3   2   2
 -0.1426298458907601D-02  12   4   2   2
  0.2619281081876763D+00  12   5   2   2
  0.3267614892129306D-03  12   6   2   2
  0.9844512249781116D-03  12   7   2   2
  0.6005245910398701D-01  12   8   2   2
  0.7855302268318158D+00  12  12   2   2
  0.2343934555023795D-01  13   1   2   2
 -0.2181033612268825D+00  13   2   2   2
  0.1019406778366530D+00  13   9   2   2
  0.8113571817690861D+00  13  13   2   2
  0.1028215323761749D+01  14  14   2   2
  0.1028215323761753D+01  15  15   2   2
  0.1028215323761749D+01  16  16   2   2
  0.1028215323761750D+01  17  17   2   2
  0.1028215323761750D+01  18  18   2   2
  0.4805126172161072D-01   3   1   3   1
  0.4890963332633537D-01   3   2   3   1
  0.4593926786582914D-02   6   1   3   1
  0.4110896373923236D-02   6   2   3   1
  0.1927058793882989D-03   7   1   3   1
  0.1724437373360696D-03   7   2   3   1
  0.1930098591166368D-05   8   1   3   1
  0.1727153893816103D-05   8   2   3   1
 -0.5298355050887563D-02   9   3   3   1
 -0.1877901242653130D-02   9   6   3   1
 -0.7877413321370514D-04   9   7   3   1
 -0.7889928913833622D-06   9   8   3   1
  0.5254286215919064D-01  10   1   3   1
  0.2742700716855795D-01  10   2   3   1
 -0.6295328070630765D-02  10   9   3   1
  0.1172970167092006D-02  11   1   3   1
  0.6122822348190723D-03  11   2   3   1
 -0.1405373007367813D-03  11   9   3   1
  0.3438464359171751D-03  12   1   3   1
  0.1794854369976052D-03  12   2   3   1
 -0.4119733927053610D-04  12   9   3   1
 -0.2629193269476410D-01  13   3   3   1
 -0.2824869563322381D-02  13   6   3   1
 -0.1184975287046248D-03  13   7   3   1
 -0.1186846484873134D-05  13   8   3   1
 -0.3408151496022804D-01  13  10   3   1
 -0.7608378887650258D-03  13  11   3   1
 -0.2230332906200508D-03  13  12   3   1
 -0.8709264513335032D-02  14   3   3   1
  0.1692359527240774D-02  14   4   3   1
  0.2800080160019606D-02  14   5   3   1
 -0.7590632934877173D-03  14   6   3   1
 -0.1781258202795850D-03  14   7   3   1
  0.2474528516830816D-03  14   8   3   1
 -0.4945510812761230D-02  14  10   3   1
  0.8535016563328531D-03  14  11   3   1
  0.1542798026978568D-02  14  12   3   1
  0.6736673145072233D-02  15   3   3   1
  0.2122077711355015D-02  15   4   3   1
  0.1211329032051580D-02  15   5   3   1
  0.5995243666083093D-03  15   6   3   1
 -0.1604461923696809D-03  15   7   3   1
  0.1087451963510682D-03  15   8   3   1
  0.3769540917661231D-02  15  10   3   1
  0.1285739721321930D-02  15  11   3   1
  0.7019345664930852D-03  15  12   3   1
 -0.2268354605971690D-01  16   3   3   1
 -0.1217119001863965D-01  16   4   3   1
 -0.2764207207274433D-01  16   5   3   1
 -0.2035421201886117D-02  16   6   3   1
  0.9596062918683741D-03  16   7   3   1
 -0.2442568218793874D-02  16   8   3   1
 -0.1254090587681137D-01  16  10   3   1
 -0.7235291533595586D-02  16  11   3   1
 -0.1564545331444235D-01  16  12   3   1
  0.2553855404277440D-01  17   3   3   1
  0.1534422131865306D-01  17   4   3   1
 -0.2346137678588201D-01  17   5   3   1
  0.2301816635529063D-02  17   6   3   1
 -0.1275785415890376D-02  17   7   3   1
 -0.2047328335664247D-02  17   8   3   1
  0.1430391514734193D-01  17  10   3   1
  0.8908671960216946D-02  17  11   3   1
 -0.1319269481661516D-01  17  12   3   1
  0.2185146265620763D-01  18   3   3   1
 -0.3054768106083656D-01  18   4   3   1
 -0.5319673670023112D-03  18   5   3   1
  0.1807081398387959D-02  18   6   3   1
  0.2763400364067932D-02  18   7   3   1
 -0.7471312648589049D-04  18   8   3   1
  0.1271457004027550D-01  18  10   3   1
 -0.1696126940003141D-01  18  11   3   1
 -0.1256517746345817D-03  18  12   3   1
  0.2000076237641174D+00   3   2   3   2
  0.4638102588309203D-02   6   1   3   2
  0.1450599226261029D-01   6   2   3   2
  0.1945589646038009D-03   7   1   3   2
  0.6084968604553789D-03   7   2   3   2
  0.1948658244057018D-05   8   1   3   2
  0.6094536669830688D-05   8   2   3   2
 -0.1215545166959187D-01   9   3   3   2
 -0.1533238045983186D-01   9   6   3   2
 -0.6431621367331583D-03   9   7   3   2
 -0.6441857086843163D-05   9   8   3   2
  0.4880040424872908D-01  10   1   3   2
  0.5631835497023319D-01  10   2   3   2
 -0.2989285528172304D-01  10   9   3   2
  0.1089423298193494D-02  11   1   3   2
  0.1257254493162634D-02  11   2   3   2
 -0.6673299841650686D-03  11   9   3   2
  0.3193553656137024D-03  12   1   3   2
  0.3685536782847246D-03  12   2   3   2
 -0.1956222256858241D-03  12   9   3   2
 -0.3776615400243379D-01  13   3   3   2
 -0.6688042266643837D-02  13   6   3   2
 -0.2805497579474961D-03  13   7   3   2
 -0.2809942712924752D-05  13   8   3   2
 -0.1328570447783683D+00  13  10   3   2
 -0.2965909039376742D-02  13  11   3   2
 -0.8694315300088447D-03  13  12   3   2
 -0.3658868660680587D-01  14   3   3   2
  0.7109809601362959D-02  14   4   3   2
  0.1176347960214015D-01  14   5   3   2
 -0.3001705559722765D-02  14   6   3   2
 -0.7043961563349940D-03  14   7   3   2
  0.9785489682903870D-03  14   8   3   2
 -0.1231738936220921D-01  14  10   3   2
  0.2125748514104415D-02  14  11   3   2
  0.3842524013816332D-02  14  12   3   2
  0.2830158873634282D-01  15   3   3   2
  0.8915108302101344D-02  15   4   3   2
  0.5088941598255973D-02  15   5   3   2
  0.2370811024708410D-02  15   6   3   2
 -0.6344823050502816D-03  15   7   3   2
  0.4300314134718709D-03  15   8   3   2
  0.9388494932594397D-02  15  10   3   2
  0.3202289386665140D-02  15  11   3   2
  0.1748252449042615D-02  15  12   3   2
 -0.9529635440555626D-01  16   3   3   2
 -0.5113265954455418D-01  16   4   3   2
 -0.1161277293879990D+00  16   5   3   2
 -0.8049045702457241D-02  16   6   3   2
  0.3794750146443089D-02  16   7   3   2
 -0.9659103100444474D-02  16   8   3   2
 -0.3123463410415012D-01  16  10   3   2
 -0.1802036362017012D-01  16  11   3   2
 -0.3896688289867661D-01  16  12   3   2
  0.1072905925315972D+00  17   3   3   2
  0.6446295256449269D-01  17   4   3   2
 -0.9856411657433338D-01  17   5   3   2
  0.9102502847772007D-02  17   6   3   2
 -0.5045076229186465D-02  17   7   3   2
 -0.8096132316756944D-02  17   8   3   2
  0.3562562068639580D-01  17  10   3   2
  0.2218811877862928D-01  17  11   3   2
 -0.3285799292217111D-01  17  12   3   2
  0.9180067016870955D-01  18   3   3   2
 -0.1283345484770281D+00  18   4   3   2
 -0.2234860047294636D-02  18   5   3   2
  0.7146079026365282D-02  18   6   3   2
  0.1092782948968891D-01  18   7   3   2
 -0.2954520542852424D-03  18   8   3   2
  0.3166716557919197D-01  18  10   3   2
 -0.4224408104871025D-01  18  11   3   2
 -0.3129508461745607D-03  18  12   3   2
  0.1038503866090463D+01   3   3   3   3
  0.9355040684598989D+00   4   4   3   3
  0.9355040678597859D+00   5   5   3   3
  0.5764520771661998D-01   6   3   3   3
  0.2111610236302872D-02   6   4   3   3
 -0.4373909097022885D-04   6   5   3   3
  0.1860249662910637D+00   6   6   3   3
  0.2418099180885764D-02   7   3   3   3
 -0.5034420563728871D-01   7   4   3   3
  0.5380205810816748D-03   7   5   3   3
  0.1267368519318329D-03   7   6   3   3
  0.1830089955409829D+00   7   7   3   3
  0.2421897624038140D-04   8   3   3   3
  0.5393809837931671D-03   8   4   3   3
  0.5038846642512458D-01   8   5   3   3
  0.1269376165707881D-05   8   6   3   3
  0.5324609793529167D-07   8   7   3   3
  0.1830036797967957D+00   8   8   3   3
  0.2652853525962965D-02   9   1   3   3
 -0.6393295597245134D-01   9   2   3   3
  0.2702920803524366D+00   9   9   3   3
  0.2787579719255078D+00  10   3   3   3
 -0.5505500371955156D-02  10   4   3   3
 -0.1646061453877859D-02  10   5   3   3
  0.6322200880884393D-01  10   6   3   3
  0.3926864613128718D-02  10   7   3   3
 -0.3691360795724154D-03  10   8   3   3
  0.8221653625782086D+00  10  10   3   3
  0.6223010518403976D-02  11   3   3   3
  0.2470116975338810D+00  11   4   3   3
  0.1308995393052138D-02  11   5   3   3
  0.3814810919909828D-02  11   6   3   3
 -0.5721733589445437D-01  11   7   3   3
  0.9180932469217387D-03  11   8   3   3
  0.1507118157457726D-02  11  10   3   3
  0.7546880823042984D+00  11  11   3   3
  0.1824223716549575D-02  12   3   3   3
 -0.1345378173446117D-02  12   4   3   3
  0.2470677566556765D+00  12   5   3   3
  0.3512182820246956D-03  12   6   3   3
  0.9416306927383963D-03  12   7   3   3
  0.5734003421214817D-01  12   8   3   3
  0.4417991322502703D-03  12  10   3   3
  0.9862752289075294D-05  12  11   3   3
  0.7546573290113743D+00  12  12   3   3
  0.1556901905515049D-01  13   1   3   3
 -0.2113740351343288D+00  13   2   3   3
  0.9970096606660339D-01  13   9   3   3
  0.7962364743216532D+00  13  13   3   3
 -0.2046032718825064D-02  14   1   3   3
 -0.1691635578098799D-01  14   2   3   3
  0.1829146313198614D-02  14   9   3   3
  0.4309373668670916D-02  14  13   3   3
  0.9440386229278899D+00  14  14   3   3
  0.1582619708730368D-02  15   1   3   3
  0.1308491199440203D-01  15   2   3   3
 -0.1414856658189927D-02  15   9   3   3
 -0.3333328757423391D-02  15  13   3   3
 -0.3279046210389554D-02  15  14   3   3
  0.9418054168985107D+00  15  15   3   3
 -0.5328954851991287D-02  16   1   3   3
 -0.4405916653925607D-01  16   2   3   3
  0.4764067568422833D-02  16   9   3   3
  0.1122389563585069D-01  16  13   3   3
  0.6315901601574039D-02  16  14   3   3
 -0.1345686172542362D-01  16  15   3   3
  0.1029059915427654D+01  16  16   3   3
  0.5999670471800053D-02  17   1   3   3
  0.4960456372011030D-01  17   2   3   3
 -0.5363685056971722D-02  17   9   3   3
 -0.1263656328353893D-01  17  13   3   3
 -0.1663034552312882D-01  17  14   3   3
  0.1117709822279170D-01  17  15   3   3
 -0.7456682081404417D-02  17  16   3   3
  0.1029778917829144D+01  17  17   3   3
  0.5133476822445399D-02  18   1   3   3
  0.4244297739234629D-01  18   2   3   3
 -0.4589310871390074D-02  18   9   3   3
 -0.1081217793838114D-01  18  13   3   3
 -0.1544718379779514D-01  18  14   3   3
  0.5185311979083174D-02  18  15   3   3
 -0.6925129388886134D-02  18  16   3   3
  0.6458392260880019D-02  18  17   3   3
  0.1028055358708673D+01  18  18   3   3
  0.4805126161505918D-01   4   1   4   1
  0.4890963324753193D-01   4   2   4   1
  0.1926742069906764D-03   6   1   4   1
  0.1724153943606982D-03   6   2   4   1
 -0.4593664906730760D-02   7   1   4   1
 -0.4110662036037362D-02   7   2   4   1
  0.4921590414697589D-04   8   1   4   1
  0.4404107620772624D-04   8   2   4   1
 -0.5298355037314371D-02   9   4   4   1
 -0.7876118853845877D-04   9   6   4   1
  0.1877794182683480D-02   9   7   4   1
 -0.2011843448252775D-04   9   8   4   1
 -0.1171105998543013D-02  10   1   4   1
 -0.6113091514331245D-03  10   2   4   1
  0.1403139486236833D-03  10   9   4   1
  0.5254324944287701D-01  11   1   4   1
  0.2742720935267089D-01  11   2   4   1
 -0.6295374472182455D-02  11   9   4   1
 -0.2861829591488348D-03  12   1   4   1
 -0.1493855122374237D-03  12   2   4   1
  0.3428849414935260D-04  12   9   4   1
 -0.2629193262925809D-01  13   4   4   1
 -0.1184780534620937D-03  13   6   4   1
  0.2824708527090547D-02  13   7   4   1
 -0.3026354521070551D-04  13   8   4   1
  0.7596287101027908D-03  13  10   4   1
 -0.3408176616510824D-01  13  11   4   1
  0.1856303287707009D-03  13  12   4   1
  0.1692359528828699D-02  14   3   4   1
 -0.2417048569625710D-01  14   4   4   1
 -0.2104366303850670D-01  14   5   4   1
  0.6122120838783349D-04  14   6   4   1
  0.2109671173083872D-02  14   7   4   1
 -0.1872832815381235D-02  14   8   4   1
  0.1337880583657415D-02  14  10   4   1
 -0.1367850951293935D-01  14  11   4   1
 -0.1179493545474846D-01  14  12   4   1
  0.2122077710544096D-02  15   3   4   1
  0.1705560207567450D-01  15   4   4   1
 -0.2944429024464837D-01  15   5   4   1
  0.2515056010357883D-03  15   6   4   1
 -0.1518023465922841D-02  15   7   4   1
 -0.2572596547393315D-02  15   8   4   1
  0.1093488429664439D-02  15  10   4   1
  0.9561407047198456D-02  15  11   4   1
 -0.1666071658574838D-01  15  12   4   1
 -0.1217119001552057D-01  16   3   4   1
  0.1538773055759217D-01  16   4   4   1
 -0.3100302033868026D-02  16   5   4   1
 -0.1012274296351597D-02  16   6   4   1
 -0.1399454191086052D-02  16   7   4   1
 -0.2585442767814051D-03  16   8   4   1
 -0.7048739247056281D-02  16  10   4   1
  0.8519139706228441D-02  16  11   4   1
 -0.1841800688031499D-02  16  12   4   1
  0.1534422130941852D-01  17   3   4   1
 -0.1976622524987048D-01  17   4   4   1
 -0.3304338613989142D-03  17   5   4   1
  0.1275146036797560D-02  17   6   4   1
  0.1792543023460924D-02  17   7   4   1
 -0.4708782772591119D-04  17   8   4   1
  0.8906898207894426D-02  17  10   4   1
 -0.1095976465809568D-01  17  11   4   1
 -0.6907809993045011D-04  17  12   4   1
 -0.3054768104859709D-01  18   3   4   1
 -0.1621387119904088D-01  18   4   4   1
 -0.2141976038260419D-02  18   5   4   1
 -0.2743104828983274D-02  18   6   4   1
  0.1309683405131913D-02  18   7   4   1
 -0.2047082180146756D-03  18   8   4   1
 -0.1702282891563016D-01  18  10   4   1
 -0.9538966303457842D-02  18  11   4   1
 -0.1271731660479796D-02  18  12   4   1
  0.2000076236360006D+00   4   2   4   2
  0.1945269877830379D-03   6   1   4   2
  0.6083968440683311D-03   6   2   4   2
 -0.4637838193250337D-02   7   1   4   2
 -0.1450516539386276D-01   7   2   4   2
  0.4968917021240641D-04   8   1   4   2
  0.1554063725153929D-03   8   2   4   2
 -0.1215545161486562D-01   9   4   4   2
 -0.6430564542758074D-03   9   6   4   2
  0.1533150635293089D-01   9   7   4   2
 -0.1642596978065859D-03   9   8   4   2
 -0.1087691907960371D-02  10   1   4   2
 -0.1255256371118845D-02  10   2   4   2
  0.6662694150885287D-03  10   9   4   2
  0.4880076397616416D-01  11   1   4   2
  0.5631877023538373D-01  11   2   4   2
 -0.2989307563354341D-01  11   9   4   2
 -0.2657990805301441D-03  12   1   4   2
 -0.3067468103736847D-03  12   2   4   2
  0.1628161400397751D-03  12   9   4   2
 -0.3776615380394831D-01  13   4   4   2
 -0.2805036529835725D-03  13   6   4   2
  0.6687660983089417D-02  13   7   4   2
 -0.7165069720824381D-04  13   8   4   2
  0.2961195402723734D-02  13  10   4   2
 -0.1328580240774987D+00  13  11   4   2
  0.7236267900549633D-03  13  12   4   2
  0.7109809600069576D-02  14   3   4   2
 -0.1015431699713067D+00  14   4   4   2
 -0.8840700518140905D-01  14   5   4   2
  0.2420984405159131D-03  14   6   4   2
  0.8342666221018645D-02  14   7   4   2
 -0.7406092135530339D-02  14   8   4   2
  0.3332152464482003D-02  14  10   4   2
 -0.3406797280815040D-01  14  11   4   2
 -0.2937670514417690D-01  14  12   4   2
  0.8915108301999019D-02  15   3   4   2
  0.7165267273795484D-01  15   4   4   2
 -0.1236990686590113D+00  15   5   4   2
  0.9945755054940595D-03  15   6   4   2
 -0.6003003338242247D-02  15   7   4   2
 -0.1017329838330808D-01  15   8   4   2
  0.2723464424580693D-02  15  10   4   2
  0.2381383401713957D-01  15  11   4   2
 -0.4149551819266445D-01  15  12   4   2
 -0.5113265954622070D-01  16   3   4   2
  0.6464574023038350D-01  16   4   4   2
 -0.1302474847925023D-01  16   5   4   2
 -0.4003025058995453D-02  16   6   4   2
 -0.5534122737797251D-02  16   7   4   2
 -0.1022409858613269D-02  16   8   4   2
 -0.1755573269307870D-01  16  10   4   2
  0.2121794188217794D-01  16  11   4   2
 -0.4587226106018825D-02  16  12   4   2
  0.6446295256931686D-01  17   3   4   2
 -0.8304033255564054D-01  17   4   4   2
 -0.1388193119468994D-02  17   5   4   2
  0.5042547815438166D-02  17   6   4   2
  0.7088587227633314D-02  17   7   4   2
 -0.1862081825135394D-03  17   8   4   2
  0.2218370103226824D-01  17  10   4   2
 -0.2729661181591763D-01  17  11   4   2
 -0.1720473104929726D-03  17  12   4   2
 -0.1283345484839034D+00  18   3   4   2
 -0.6811645823870523D-01  18   4   4   2
 -0.8998703617615893D-02  18   5   4   2
 -0.1084757106841134D-01  18   6   4   2
  0.5179125374951643D-02  18   7   4   2
 -0.8095158846688539D-03  18   8   4   2
 -0.4239740239084875D-01  18  10   4   2
 -0.2375794265456535D-01  18  11   4   2
 -0.3167400621681576D-02  18  12   4   2
  0.5149989850848668D-01   4   3   4   3
  0.1530457387598994D-03   6   3   4   3
  0.3649066097779853D-02   6   4   4   3
  0.1267160192106645D-03   6   6   4   3
 -0.3648858100487658D-02   7   3   4   3
  0.1530708983630501D-03   7   4   4   3
 -0.1507899723836664D-02   7   6   4   3
 -0.1267296195486672D-03   7   7   4   3
  0.3909337024914234D-04   8   3   4   3
  0.1533115234118593D-05   8   4   4   3
  0.1621052874682361D-04   8   6   4   3
  0.4422733275105943D-07   8   7   4   3
  0.1359940429575312D-07   8   8   4   3
 -0.3538100416911502D-03  10   3   4   3
  0.1587404756855165D-01  10   4   4   3
  0.5888423720424847D-04  10   6   4   3
 -0.2998904693446327D-02  10   7   4   3
  0.3207178805678144D-04  10   8   4   3
 -0.1504722937930207D-02  10  10   4   3
  0.1587416466036238D-01  11   3   4   3
  0.3543732325600598D-03  11   4   4   3
  0.2999101593474419D-02  11   6   4   3
  0.5880332705356886D-04  11   7   4   3
  0.1975476283729233D-05  11   8   4   3
  0.3373891593506181D-01  11  10   4   3
  0.1507129269241991D-02  11  11   4   3
 -0.8646050340727779D-04  12   3   4   3
  0.1038815619631884D-03  12   4   4   3
 -0.1549730008232100D-04  12   6   4   3
 -0.2029141600671326D-04  12   7   4   3
  0.2032084352515614D-06  12   8   4   3
 -0.1887779778443936D-03  12  10   4   3
  0.2167968171218872D-03  12  11   4   3
 -0.2406327772827557D-05  12  12   4   3
  0.3975792627471132D-03  14   1   4   3
  0.3287138183754995D-02  14   2   4   3
 -0.3554345126964390D-03  14   9   4   3
 -0.8373852412348580D-03  14  13   4   3
 -0.7268076684327809D-02  14  14   4   3
  0.4985312386561064D-03  15   1   4   3
  0.4121797144687420D-02  15   2   4   3
 -0.4456852369890308D-03  15   9   4   3
 -0.1050011258241291D-02  15  13   4   3
 -0.4359688635562145D-02  15  14   4   3
  0.9403111741986595D-03  15  15   4   3
 -0.2859329044976068D-02  16   1   4   3
 -0.2364059335751401D-01  16   2   4   3
  0.2556230470037989D-02  16   9   4   3
  0.6022346154684985D-02  16  13   4   3
  0.3047752349260653D-01  16  14   4   3
  0.1602093585476079D-01  16  15   4   3
  0.1106991548902454D-01  16  16   4   3
  0.3604756611111881D-02  17   1   4   3
  0.2980370005838124D-01  17   2   4   3
 -0.3222640187210210D-02  17   9   4   3
 -0.7592372814029025D-02  17  13   4   3
 -0.6208253376946540D-04  17  14   4   3
  0.3386765190227165D-01  17  15   4   3
 -0.3182518463077542D-02  17  16   4   3
  0.6110700400242413D-02  17  17   4   3
 -0.7176444667636566D-02  18   1   4   3
 -0.5933399321148401D-01  18   2   4   3
  0.6415717197316743D-02  18   9   4   3
  0.1511509632716179D-01  18  13   4   3
  0.3232644409156211D-01  18  14   4   3
 -0.2225962085583119D-01  18  15   4   3
  0.6823223422160945D-02  18  16   4   3
 -0.1249659547499180D-02  18  17   4   3
 -0.1085285037206192D-01  18  18   4   3
  0.1038503864863281D+01   4   4   4   4
  0.9355040673171419D+00   5   5   4   4
  0.5034707546236156D-01   6   3   4   4
  0.2417701711119222D-02   6   4   4   4
 -0.4373908967267672D-04   6   5   4   4
  0.1830089937228356D+00   6   6   4   4
  0.2111957381455820D-02   7   3   4   4
 -0.5764192177956869D-01   7   4   4   4
  0.5380205813509168D-03   7   5   4   4
 -0.1267087880147261D-03   7   6   4   4
  0.1860246218777770D+00   7   7   4   4
  0.2115274575004026D-04   8   3   4   4
  0.6175677236623555D-03   8   4   4   4
  0.5038846637897056D-01   8   5   4   4
  0.1357535352783379D-05   8   6   4   4
 -0.3236597489622052D-04   8   7   4   4
  0.1830040260209016D+00   8   8   4   4
  0.2652853520090722D-02   9   1   4   4
 -0.6393295590050155D-01   9   2   4   4
  0.2702920803375958D+00   9   9   4   4
  0.2470098763521918D+00  10   3   4   4
 -0.6213120440605072D-02  10   4   4   4
 -0.1646061448203378D-02  10   5   4   4
  0.5722385868016052D-01  10   6   4   4
  0.3809047212203947D-02  10   7   4   4
 -0.3730847356047673D-03  10   8   4   4
  0.7546879745903006D+00  10  10   4   4
  0.5514264038536082D-02  11   3   4   4
  0.2787600264183894D+00  11   4   4   4
  0.1308995385987731D-02  11   5   4   4
  0.3932368635072129D-02  11   6   4   4
 -0.6321519833856366D-01  11   7   4   4
  0.9822372064147247D-03  11   8   4   4
 -0.1504734032058310D-02  11  10   4   4
  0.8221663579753244D+00  11  11   4   4
  0.1616460589795037D-02  12   3   4   4
 -0.1518299177851523D-02  12   4   4   4
  0.2470677563310957D+00  12   5   4   4
  0.3106334391718389D-03  12   6   4   4
  0.9726231612565794D-03  12   7   4   4
  0.5733966802634532D-01  12   8   4   4
  0.8195708704592094D-05  12  10   4   4
 -0.3677115884926655D-03  12  11   4   4
  0.7546564402357666D+00  12  12   4   4
  0.1556901902110005D-01  13   1   4   4
 -0.2113740348210028D+00  13   2   4   4
  0.9970096600777803D-01  13   9   4   4
  0.7962364739415018D+00  13  13   4   4
 -0.5678275641947008D-02  14   1   4   4
 -0.4694730941525340D-01  14   2   4   4
  0.5076359169678100D-02  14   9   4   4
  0.1195963841006464D-01  14  13   4   4
  0.1003884029175854D+01  14  14   4   4
  0.4006804457566925D-02  15   1   4   4
  0.3312778396036796D-01  15   2   4   4
 -0.3582069604742459D-02  15   9   4   4
 -0.8439169827201651D-02  15  13   4   4
  0.1338335928820245D-01  15  14   4   4
  0.1012286549664440D+01  15  15   4   4
  0.3614978063059131D-02  16   1   4   4
  0.2988820982715069D-01  16   2   4   4
 -0.3231778128197337D-02  16   9   4   4
 -0.7613901328133124D-02  16  13   4   4
 -0.2076258594957020D-01  16  14   4   4
  0.2080190229795015D-01  16  15   4   4
  0.9635762641773793D+00  16  16   4   4
 -0.4643600328026916D-02  17   1   4   4
 -0.3839273670126408D-01  17   2   4   4
  0.4151362946482980D-02  17   9   4   4
  0.9780395368826772D-02  17  13   4   4
  0.3239697836014793D-01  17  14   4   4
 -0.1870390857585888D-01  17  15   4   4
 -0.3107805974799273D-01  17  16   4   4
  0.9782766847410668D+00  17  17   4   4
 -0.3809059983723689D-02  18   1   4   4
 -0.3149285612804466D-01  18   2   4   4
  0.3405286709627960D-02  18   9   4   4
  0.8022678523800619D-02  18  13   4   4
  0.2444135593811381D-01  18  14   4   4
 -0.1765457181206462D-01  18  15   4   4
  0.8180289937975344D-02  18  16   4   4
 -0.9359480695603252D-02  18  17   4   4
  0.1014714701297575D+01  18  18   4   4
  0.4805126149798094D-01   5   1   5   1
  0.4890963316080331D-01   5   2   5   1
 -0.3990990687326835D-05   6   1   5   1
 -0.3571353295990183D-05   6   2   5   1
  0.4909177440847162D-04   7   1   5   1
  0.4392999803651412D-04   7   2   5   1
  0.4597703468316252D-02   8   1   5   1
  0.4114275968756760D-02   8   2   5   1
 -0.5298355022027143D-02   9   5   5   1
  0.1631440982251405D-05   9   6   5   1
 -0.2006769313827248D-04   9   7   5   1
 -0.1879445051510090D-02   9   8   5   1
 -0.3501430023304087D-03  10   1   5   1
 -0.1827722006098080D-03  10   2   5   1
  0.4195175100632570D-04  10   9   5   1
  0.2784437735549396D-03  11   1   5   1
  0.1453457113615524D-03  11   2   5   1
 -0.3336123749122913D-04  11   9   5   1
  0.5255517405017476D-01  12   1   5   1
  0.2743343394141785D-01  12   2   5   1
 -0.6296803197131110D-02  12   9   5   1
 -0.2629193255692635D-01  13   5   5   1
  0.2454117423689560D-05  13   6   5   1
 -0.3018721614006273D-04  13   7   5   1
 -0.2827191891719324D-02  13   8   5   1
  0.2271175093046877D-03  13  10   5   1
 -0.1806103669780127D-03  13  11   5   1
 -0.3408950096379369D-01  13  12   5   1
  0.2800080157500938D-02  14   3   5   1
 -0.2104366302975321D-01  14   4   5   1
  0.3287975014208631D-01  14   5   5   1
  0.1659366052615275D-03  14   6   5   1
  0.1889706961907645D-02  14   7   5   1
  0.2871068747085400D-02  14   8   5   1
  0.1720789715043325D-02  14  10   5   1
 -0.1173919124274959D-01  14  11   5   1
  0.1862985993202861D-01  14  12   5   1
  0.1211329032383113D-02  15   3   5   1
 -0.2944429023051879D-01  15   4   5   1
 -0.2379227517138418D-01  15   5   5   1
 -0.2570768712080560D-06  15   6   5   1
  0.2568581111411671D-02  15   7   5   1
 -0.2119470427675545D-02  15   8   5   1
  0.1143139247438304D-02  15  10   5   1
 -0.1666824899012610D-01  15  11   5   1
 -0.1333161500512690D-01  15  12   5   1
 -0.2764207204666564D-01  16   3   5   1
 -0.3100302035514760D-02  16   4   5   1
  0.7295815456213654D-02  16   5   5   1
 -0.2440259601126547D-02  16   6   5   1
  0.1773250710775292D-03  16   7   5   1
  0.6375062252126103D-03  16   8   5   1
 -0.1558389366719397D-01  16  10   5   1