1 : h2o.inp
----- GAMESS execution script 'rungms' -----
This job is running on host coupled.cem.msu.edu
under operating system Linux at Thu Oct 12 14:15:08 EDT 2023
Available scratch disk space (Kbyte units) at beginning of the job is
Filesystem      1K-blocks    Used  Available Use% Mounted on
/dev/sde2      2619147912 2870596 2483225516   1% /scratch
GAMESS temporary binary files will be written to /scratch/gururang
GAMESS supplementary output files will be written to /home2/gururang/miniccpy/tests/refactor_left/test_from_taylor
Copying input file /home2/gururang/miniccpy/tests/refactor_left/test_from_taylor/h2o.inp to your run's scratch directory...

 Distributed Data Interface kickoff program.
 Initiating 1 compute processes on 1 nodes to run the following command:
 /home2/gururang/gamess_R1_2023/gamess/gamess.00.x h2o 

          *******************************************************
          *                                                     *
          *          GAMESS VERSION = 30 JUN 2023 (R1)          *
          *                                                     *
          *              doi.org/10.1063/5.0005188              *
          *                                                     *
          **************** 64 BIT LINUX VERSION *****************

  GAMESS HAS BEEN MADE POSSIBLE WITH IMPORTANT CONTRIBUTIONS FROM
  THE FOLLOWING INDIVIDUALS (IN ALPHABETICAL ORDER):

     IVANA ADAMOVIC, CHRISTINE AIKENS, TOMOKO AKAMA,
     MELISA ALKAN, YURI ALEXEEV, YURIKO AOKI, POOJA ARORA,
     TOSHIO ASADA, ANDREY ASADCHEV, KIM K. BALDRIDGE,
     PRADIPTA BANDYOPADHYAY, TAYLOR A. BARNES, MARIA BARYSZ,
     ROB BELL, JONATHAN BENTZ, COLLEEN BERTONI,
     JERRY A. BOATZ, BRETT BODE, KURT BRORSEN, KURT R. BRORSEN,
     LAIMUTIS BYTAUTAS, CALEB CARLIN, LAURA CARRINGTON,
     GALINA CHABAN, BENOIT CHAMPAGNE, WEI CHEN, MAHITO CHIBA,
     DAN CHIPMAN, CHEOL HO CHOI, TANNER CULPITT,
     DIPAYAN DATTA, PAUL DAY, ALBERT DEFUSCO,
     NUWAN DESILVA, J. EMILIANO DEUSTUA,
     TIM DUDLEY, MICHEL DUPUIS, STEVEN T. ELBERT,
     DMITRI FEDOROV, KATHERINE FERRERAS, MICHAEL FILATOV,
     ALEX FINDLATER,GRAHAM FLETCHER, MARK FREITAG,
     CHRISTIAN FRIEDL, DAVID GARMER, 
     IGOR S. GERASIMOV, KURT GLAESEMANN,
     MARK S. GORDON, JEFFREY R. GOUR, FENG LONG GU,
     EMILIE B. GUIDEZ, ANASTASIA GUNINA, SHARON HAMMES-SCHIFFER,
     MASATAKE HARUTA, KIMIHIKO HIRAO, YASUHIRO IKABATA,
     TZVETELIN IORDANOV, STEPHAN IRLE, KAZUYA ISHIMURA,
     JOE IVANIC, FRANK JENSEN, JAN H. JENSEN, VISVALDAS KAIRYS,
     MUNEAKI KAMIYA, MICHIO KATOUDA, NAOAKI KAWAKAMI, DAN KEMP,
     BERNARD KIRTMAN, KAZUO KITAURA, MARIUSZ KLOBUKOWSKI,
     MASATO KOBAYASHI, KONSTANTIN KOMAROV, PRAKASHAN KORAMBATH,
     JACEK KORCHOWIEC, SHIRO KOSEKI, KAROL KOWALSKI,
     JIMMY KROMANN, STANISLAW A. KUCHARSKI, HENRY KURTZ,
     SAROM SOK LEANG, SEUNGHOON LEE, HUI LI, SHUHUA LI, WEI LI,
     JESSE J. LUTZ, ALEKSANDR O. LYKHIN,
     ILIAS MAGOULAS, MARCIN MAKOWSKI,
     JOANI MATO, NIKITA MATSUNAGA, BENEDETTA MENNUCCI,
     GRANT MERRILL, NORIYUKI MINEZAWA, VLADIMIR MIRONOV,
     EISAKU MIYOSHI, JOHN A. MONTGOMERY JR., HIROTOSHI MORI,
     JONATHAN MULLIN, MONIKA MUSIAL, SHIGERU NAGASE,
     TAKESHI NAGATA, HIROMI NAKAI, TAKAHITO NAKAJIMA,
     YUYA NAKAJIMA, HARUYUKI NAKANO, HIROYA NAKATA, SEAN NEDD,
     HEATHER NETZLOFF, KIET A. NGUYEN, YOSHIO NISHIMOTO,
     BOSILJKA NJEGIC, RYAN OLSON, MIKE PAK, ROBERTO PEVERATI,
     BUU PHAM, PIOTR PIECUCH, ANNA POMOGAEVA, DAVID POOLE,
     SPENCER PRUITT, OLIVIER QUINET, LUKE ROSKOP,
     KLAUS RUEDENBERG, ANDREW SAND, TOSAPORN SATTASATHUCHANA,
     NOZOMI SAWADA, MICHAEL W. SCHMIDT, PATRICK E. SCHNEIDER,
     JUNJI SEINO, PRACHI SHARMA, JUN SHEN, JIM SHOEMAKER,
     YINAN SHU, DEJUN SI, JONATHAN SKONE, LYUDMILA SLIPCHENKO,
     TONY SMITH, JIE SONG, MARK SPACKMAN, CASPER STEINMANN,
     WALT STEVENS, PEIFENG SU, SHUJUN SU, CHET SWALINA,
     CHINAMI TAKASHIMA, TETSUYA TAKETSUGU, ZHEN TAO,
     NANDUN THELLAMUREGE, SEIKEN TOKURA, JACOPO TOMASI,
     TSUGUKI TOUMA, TAKAO TSUNEDA, HIROAKI UMEDA,
     JORGE LUIS GALVEZ VALLEJO, YALI WANG, SIMON WEBB,
     AARON WEST, THERESA L. WINDUS, MARTA WLOCH,
     PENG XU, KIYOSHI YAGI, SUSUMU YANAGISAWA, YANG YANG,
     SOOHAENG YOO, TAKESHI YOSHIKAWA, FEDERICO ZAHARIEV,
     TOBY ZENG

  WHO ARE SUPPORTED BY THEIR INSTITUTION/UNIVERSITY/COMPANY/GROUP
  (IN ALPHABETICAL ORDER):

     EP ANALYTICS,
     FACULTES UNIVERSITAIRES NOTRE-DAME DE LA PAIX,
     INSTITUTE FOR MOLECULAR SCIENCE, IOWA STATE UNIVERSITY,
     JACKSON STATE UNIVERSITY, JOHANNES KEPLER UNIVERSITY LINZ,
     KYUNGPOOK NATIONAL UNIVERSITY
     KYUSHU UNIVERSITY, MICHIGAN STATE UNIVERSITY,
     MIE UNIVERSITY, THE MOLECULAR SCIENCES SOFTWARE INSTITUTE,
     MOSCOW STATE UNIVERSITY,
     N. COPERNICUS UNIVERSITY, NAGOYA UNIVERSITY,
     NANJING UNIVERSITY, NAT. INST. OF ADVANCED INDUSTRIAL
     SCIENCE AND TECHNOLOGY, NATIONAL INST. OF STANDARDS AND
     TECHNOLOGY, NESMEYANOV INSTITUTE OF ORGANOELEMENT COMPOUNDS
     OF RUSSIAN ACADEMY OF SCIENCES, OSAKA PREFECTURE UNIVERSITY,
     PENNSYLVANIA STATE UNIVERSITY, TOKYO INSTITUTE OF TECHNOLOGY,
     UNIVERSITY OF AARHUS, UNIVERSITY OF ALBERTA,
     UNIVERSITY OF CALIFORNIA AT SANTA BARBARA,
     UNIVERSITY OF COPENHAGEN, UNIVERSITY OF IOWA,
     UNIVERSITY OF MEMPHIS, UNIVERSITY OF MINNESOTA,
     UNIVERSITY OF NEBRASKA, UNIVERSITY OF NEW ENGLAND,
     UNIVERSITY OF NOTRE DAME, UNIVERSITY OF PISA,
     UNIVERSITY OF SILESIA, UNIVERSITY OF TOKYO,
     UNIVERSITY OF ZURICH, WASEDA UNIVERSITY,
     YALE UNIVERSITY

  GAMESS SOFTWARE MANAGEMENT TEAM FOR THIS RELEASE:
     MARK S. GORDON (TEAM LEAD),
     BRETT BODE (SENIOR ADVISOR),
     GIUSEPPE BARCA,
     COLLEEN BERTONI,
     KRISTOPHER KEIPERT (ADVISOR),
     SAROM S. LEANG (DEVELOPMENT LEAD),
     BUU PHAM,
     JACKSON HAYES (WEBSITE ADMINISTRATOR),
     PENG XU

 EXECUTION OF GAMESS BEGUN 14:15:08 12-OCT-2023    

            ECHO OF THE FIRST FEW INPUT CARDS -
 INPUT CARD> $CONTRL SCFTYP=RHF RUNTYP=FCIDUMP CCTYP=CCSD MAXIT=30 $END                     
 INPUT CARD> $BASIS GBASIS=N311 NGAUSS=6 NDFUNC=1 $END                                      
 INPUT CARD> $CCINP NCORE=0 $END                                                            
 INPUT CARD> $TRANS CUTTRF=1.0d-12   $END                                                   
 INPUT CARD> $SCF DIRSCF=.TRUE. CONV=1.0d-14 $END                                           
 INPUT CARD> $DATA                                                                          
 INPUT CARD>Title                                                                           
 INPUT CARD>C1                                                                              
 INPUT CARD>O     8.0    -1.09735     0.03059     0.00000                                   
 INPUT CARD>H     1.0    -1.09735     1.13059     0.00000                                   
 INPUT CARD>H     1.0    -1.09735    -0.33608     1.03709                                   
 INPUT CARD>O     8.0     0.54435     3.41543     0.26396                                   
 INPUT CARD>H     1.0     0.69786     4.22643     0.23540                                   
 INPUT CARD>H     1.0     0.47955     3.09125     1.31311                                   
 INPUT CARD> $END                                                                           
      1000000 WORDS OF MEMORY AVAILABLE

     BASIS OPTIONS
     -------------
     GBASIS=N311         IGAUSS=       6      POLAR=POPN311 
     NDFUNC=       1     NFFUNC=       0     DIFFSP=       F
     NPFUNC=       0      DIFFS=       F     BASNAM=        


     RUN TITLE
     ---------
 Title                                                                           

 THE POINT GROUP OF THE MOLECULE IS C1      
 THE ORDER OF THE PRINCIPAL AXIS IS     0

 ATOM      ATOMIC                      COORDINATES (BOHR)
           CHARGE         X                   Y                   Z
 O           8.0    -2.0736908126        0.0578067180        0.0000000000
 H           1.0    -2.0736908126        2.1365053045        0.0000000000
 H           1.0    -2.0736908126       -0.6350991100        1.9598159246
 O           8.0     1.0286723414        6.4542268302        0.4988120717
 H           1.0     1.3187641778        7.9867946063        0.4448414975
 H           1.0     0.9062180974        5.8416154595        2.4814180917

          INTERNUCLEAR DISTANCES (ANGS.)
          ------------------------------

                1 O          2 H          3 H          4 O          5 H     

   1 O       0.0000000    1.1000000 *  1.1000012 *  3.7712061    4.5698212  
   2 H       1.1000000 *  0.0000000    1.7962952 *  2.8258357 *  3.5864213  
   3 H       1.1000012 *  1.7962952 *  0.0000000    4.1673416    4.9680965  
   4 O       3.7712061    2.8258357 *  4.1673416    0.0000000    0.8258947 *
   5 H       4.5698212    3.5864213    4.9680965    0.8258947 *  0.0000000  
   6 H       3.6849031    2.8381436 *  3.7827756    1.1000034 *  1.5804277 *

                6 H     

   1 O       3.6849031  
   2 H       2.8381436 *
   3 H       3.7827756  
   4 O       1.1000034 *
   5 H       1.5804277 *
   6 H       0.0000000  

  * ... LESS THAN  3.000


     ATOMIC BASIS SET
     ----------------
 THE CONTRACTED PRIMITIVE FUNCTIONS HAVE BEEN UNNORMALIZED
 THE CONTRACTED BASIS FUNCTIONS ARE NOW NORMALIZED TO UNITY

  SHELL TYPE  PRIMITIVE        EXPONENT          CONTRACTION COEFFICIENT(S)

 O         

      1   S       1          8588.5000000    0.001895150083
      1   S       2          1297.2300000    0.014385900631
      1   S       3           299.2960000    0.070732003103
      1   S       4            87.3771000    0.240001010530
      1   S       5            25.6789000    0.594797026097
      1   S       6             3.7400400    0.280802012320

      2   L       7            42.1175000    0.113889012440    0.036511397380
      2   L       8             9.6283700    0.920811100576    0.237152982984
      2   L       9             2.8533200   -0.003274470358    0.819701941186

      3   L      10             0.9056610    1.000000000000    1.000000000000

      4   L      11             0.2556110    1.000000000000    1.000000000000

      5   D      12             1.2920000    1.000000000000

 H         

      6   S      13            33.8650000    0.025493814541
      6   S      14             5.0947900    0.190373108582
      6   S      15             1.1587900    0.852161486043

      7   S      16             0.3258400    1.000000000000

      8   S      17             0.1027410    1.000000000000

 H         

      9   S      18            33.8650000    0.025493814541
      9   S      19             5.0947900    0.190373108582
      9   S      20             1.1587900    0.852161486043

     10   S      21             0.3258400    1.000000000000

     11   S      22             0.1027410    1.000000000000

 O         

     12   S      23          8588.5000000    0.001895150083
     12   S      24          1297.2300000    0.014385900631
     12   S      25           299.2960000    0.070732003103
     12   S      26            87.3771000    0.240001010530
     12   S      27            25.6789000    0.594797026097
     12   S      28             3.7400400    0.280802012320

     13   L      29            42.1175000    0.113889012440    0.036511397380
     13   L      30             9.6283700    0.920811100576    0.237152982984
     13   L      31             2.8533200   -0.003274470358    0.819701941186

     14   L      32             0.9056610    1.000000000000    1.000000000000

     15   L      33             0.2556110    1.000000000000    1.000000000000

     16   D      34             1.2920000    1.000000000000

 H         

     17   S      35            33.8650000    0.025493814541
     17   S      36             5.0947900    0.190373108582
     17   S      37             1.1587900    0.852161486043

     18   S      38             0.3258400    1.000000000000

     19   S      39             0.1027410    1.000000000000

 H         

     20   S      40            33.8650000    0.025493814541
     20   S      41             5.0947900    0.190373108582
     20   S      42             1.1587900    0.852161486043

     21   S      43             0.3258400    1.000000000000

     22   S      44             0.1027410    1.000000000000

 TOTAL NUMBER OF BASIS SET SHELLS             =   22
 NUMBER OF CARTESIAN GAUSSIAN BASIS FUNCTIONS =   50
 NUMBER OF ELECTRONS                          =   20
 CHARGE OF MOLECULE                           =    0
 SPIN MULTIPLICITY                            =    1
 NUMBER OF OCCUPIED ORBITALS (ALPHA)          =   10
 NUMBER OF OCCUPIED ORBITALS (BETA )          =   10
 TOTAL NUMBER OF ATOMS                        =    6
 THE NUCLEAR REPULSION ENERGY IS       31.4510758634

     $CONTRL OPTIONS
     ---------------
 SCFTYP=ROHF         RUNTYP=FCIDUMP      EXETYP=RUN     
 MPLEVL=       0     CITYP =NONE         CCTYP =NONE         VBTYP =NONE    
 DFTTYP=NONE         TDDFT =NONE    
 MULT  =       1     ICHARG=       0     NZVAR =       0     COORD =UNIQUE  
 PP    =NONE         RELWFN=NONE         LOCAL =NONE         NUMGRD=       F
 ISPHER=      -1     NOSYM =       0     MAXIT =      30     UNITS =ANGS    
 PLTORB=       F     MOLPLT=       F     AIMPAC=       F     FRIEND=        
 NPRINT=       7     IREST =       0     GEOM  =INPUT   
 NORMF =       0     NORMP =       0     ITOL  =      20     ICUT  =       9
 INTTYP=BEST         GRDTYP=BEST         QMTTOL= 1.0E-06

     $SYSTEM OPTIONS
     ---------------
  REPLICATED MEMORY=     1000000 WORDS (ON EVERY NODE).
 DISTRIBUTED MEMDDI=           0 MILLION WORDS IN AGGREGATE,
 MEMDDI DISTRIBUTED OVER   1 PROCESSORS IS           0 WORDS/PROCESSOR.
 TOTAL MEMORY REQUESTED ON EACH PROCESSOR=     1000000 WORDS.
 TIMLIM=      525600.00 MINUTES, OR     365.0 DAYS.
 PARALL= F  BALTYP=  DLB     KDIAG=    0  COREFL= F
 MXSEQ2=     300 MXSEQ3=     150  mem10=         0  mem22=         0

          ----------------
          PROPERTIES INPUT
          ----------------

     MOMENTS            FIELD           POTENTIAL          DENSITY
 IEMOM =       1   IEFLD =       0   IEPOT =       0   IEDEN =       0
 WHERE =COMASS     WHERE =NUCLEI     WHERE =NUCLEI     WHERE =NUCLEI  
 OUTPUT=BOTH       OUTPUT=BOTH       OUTPUT=BOTH       OUTPUT=BOTH    
 IEMINT=       0   IEFINT=       0                     IEDINT=       0
                                                       MORB  =       0
          EXTRAPOLATION IN EFFECT
          SOSCF IN EFFECT
 ORBITAL PRINTING OPTION: NPREO=     1    50     2     1

     -------------------------------
     INTEGRAL TRANSFORMATION OPTIONS
     -------------------------------
     NWORD  =            0
     CUTTRF = 1.0E-12     MPTRAN =       0
     DIRTRF =       T     AOINTS =DUP     

          ----------------------
          INTEGRAL INPUT OPTIONS
          ----------------------
 NOPK  =       1 NORDER=       0 SCHWRZ=       T

     ------------------------------------------
     THE POINT GROUP IS C1 , NAXIS= 0, ORDER= 1
     ------------------------------------------

     DIMENSIONS OF THE SYMMETRY SUBSPACES ARE
 A   =   50

 ..... DONE SETTING UP THE RUN .....
 STEP CPU TIME =     0.01 TOTAL CPU TIME =          0.0 (      0.0 MIN)
 TOTAL WALL CLOCK TIME=          0.0 SECONDS, CPU UTILIZATION IS    87.92%

          ********************
          1 ELECTRON INTEGRALS
          ********************
 ...... END OF ONE-ELECTRON INTEGRALS ......
 STEP CPU TIME =     0.00 TOTAL CPU TIME =          0.0 (      0.0 MIN)
 TOTAL WALL CLOCK TIME=          0.0 SECONDS, CPU UTILIZATION IS    89.08%

          -------------
          GUESS OPTIONS
          -------------
          GUESS =HUCKEL            NORB  =       0          NORDER=       0
          MIX   =       F          PRTMO =       F          PUNMO =       F
          TOLZ  = 1.0E-08          TOLE  = 1.0E-05
          SYMDEN=       F          PURIFY=       F

 INITIAL GUESS ORBITALS GENERATED BY HUCKEL   ROUTINE.
 HUCKEL GUESS REQUIRES     23454 WORDS.

 SYMMETRIES FOR INITIAL GUESS ORBITALS FOLLOW.  ALPHA SET(S).
    10 ORBITALS ARE OCCUPIED (    2 CORE ORBITALS).
     3=A        4=A        5=A        6=A        7=A        8=A        9=A   
    10=A       11=A       12=A       13=A       14=A       15=A       16=A   
    17=A       18=A       19=A       20=A   

 SYMMETRIES FOR INITIAL GUESS ORBITALS FOLLOW.   BETA SET(S).
    10 ORBITALS ARE OCCUPIED (    2 CORE ORBITALS).
     3=A        4=A        5=A        6=A        7=A        8=A        9=A   
    10=A       11=A       12=A       13=A       14=A       15=A       16=A   
    17=A       18=A       19=A       20=A   
 ...... END OF INITIAL ORBITAL SELECTION ......
 STEP CPU TIME =     0.00 TOTAL CPU TIME =          0.0 (      0.0 MIN)
 TOTAL WALL CLOCK TIME=          0.0 SECONDS, CPU UTILIZATION IS    91.15%

                    ----------------------
                    AO INTEGRAL TECHNOLOGY
                    ----------------------
     S,P,L SHELL ROTATED AXIS INTEGRALS, REPROGRAMMED BY
        KAZUYA ISHIMURA (IMS) AND JOSE SIERRA (SYNSTAR).
     S,P,D,L SHELL ROTATED AXIS INTEGRALS PROGRAMMED BY
        KAZUYA ISHIMURA (INSTITUTE FOR MOLECULAR SCIENCE).
     S,P,D,F,G SHELL TO TOTAL QUARTET ANGULAR MOMENTUM SUM 5,
        ERIC PROGRAM BY GRAHAM FLETCHER (ELORET AND NASA ADVANCED
        SUPERCOMPUTING DIVISION, AMES RESEARCH CENTER).
     S,P,D,F,G,L SHELL GENERAL RYS QUADRATURE PROGRAMMED BY
        MICHEL DUPUIS (PACIFIC NORTHWEST NATIONAL LABORATORY).

          --------------------
          2 ELECTRON INTEGRALS
          --------------------

 DIRECT SCF METHOD SKIPS INTEGRAL STORAGE ON DISK.
 DIRECT TRANSFORMATION SKIPS AO INTEGRAL STORAGE ON DISK.
  ...... END OF TWO-ELECTRON INTEGRALS .....
 STEP CPU TIME =     0.02 TOTAL CPU TIME =          0.0 (      0.0 MIN)
 TOTAL WALL CLOCK TIME=          0.0 SECONDS, CPU UTILIZATION IS    91.91%

          ---------------------------
                 ROHF SCF CALCULATION
          ---------------------------

     NUCLEAR ENERGY =        31.4510758634
     MAXIT = 30     NPUNCH=  2     MULT=  1
     EXTRAP=T  DAMP=F  SHIFT=F  RSTRCT=F  DIIS=F  SOSCF=T
     DENSITY MATRIX CONV=  2.00E-14
     ROHF CANONICALIZATION PARAMETERS
             C-C     O-O     V-V
     ALPHA -0.5000  0.5000  1.5000
     BETA   1.5000  0.5000 -0.5000
     SOSCF WILL OPTIMIZE     400 ORBITAL ROTATION ANGLES. SOGTOL= 2.500E-01
     MEMORY REQUIRED FOR UHF/ROHF ITERS=     71552 WORDS.

 DIRECT SCF CALCULATION, SCHWRZ=T   FDIFF=T
 SCHWARZ INEQUALITY OVERHEAD:      1162 INTEGRALS, T=        0.00

                                                                                NONZERO     BLOCKS
 ITER EX      TOTAL ENERGY        E CHANGE  DENSITY CHANGE    ORB. GRAD       INTEGRALS    SKIPPED
   1  0     -151.4263053111  -151.4263053111   0.234121976   0.000000000         418131       9557
          ---------------START SECOND ORDER SCF---------------
   2  1     -151.9578451052    -0.5315397940   0.071351260   0.039457208         417797       9772
   3  2     -151.9833996575    -0.0255545523   0.044724155   0.014446089         413578      10330
   4  3     -151.9862042660    -0.0028046085   0.008575183   0.005832185         410146      10575
   5  4     -151.9864682756    -0.0002640096   0.002197991   0.002018508         398096      11402
   6  5     -151.9865034234    -0.0000351479   0.000614153   0.000549314         389273      11903
   7  6     -151.9865081100    -0.0000046866   0.000355444   0.000174646         382373      12266
   8  7     -151.9865082641    -0.0000001541   0.000086288   0.000080049         366339      13401
   9  8     -151.9865083075    -0.0000000434   0.000020400   0.000011093         351392      14370
  10  9     -151.9865083096    -0.0000000020   0.000006719   0.000002919         331911      15236
  11 10     -151.9865083097    -0.0000000001   0.000001002   0.000000595         310706      16063
  12 11     -151.9865083095     0.0000000002   0.000000490   0.000000276         267263      18048
  13 12     -151.9865083093     0.0000000001   0.000000148   0.000000065         243966      19101
  14 13     -151.9865083093     0.0000000001   0.000000032   0.000000014         209790      21110
  15 14     -151.9865083093    -0.0000000000   0.000000009   0.000000004         190538      22365
  16 15     -151.9865083093     0.0000000000   0.000000005   0.000000002         160021      24568
  17 16     -151.9865083090     0.0000000003   0.000000001   0.000000001         137737      26125
  18 17     -151.9865083091    -0.0000000001   0.000000001   0.000000000         113127      27697
  19 18     -151.9865083084     0.0000000007   0.000000001   0.000000001          86288      28817
  20 19     -151.9865083085    -0.0000000000   0.000000001   0.000000000          93088      28621
  21 20     -151.9865083084     0.0000000001   0.000000017   0.000000001          62320      30036
  22 21     -151.9865083085    -0.0000000001   0.000000016   0.000000005         169345      24184
  23 22     -151.9865083084     0.0000000001   0.000000000   0.000000000         167996      24262
  24 23     -151.9865083074     0.0000000010   0.000000002   0.000000000          23450      31288
  25 24     -151.9865083074    -0.0000000000   0.000000001   0.000000002         129366      26627
  26 25     -151.9865083075    -0.0000000000   0.000000000   0.000000000         123108      26951
  27 26     -151.9865083075    -0.0000000001   0.000000001   0.000000001          36777      30768
  28 27     -151.9865083072     0.0000000003   0.000000001   0.000000001         119660      27242
  29 28     -151.9865083074    -0.0000000002   0.000000000   0.000000000         110488      27696
  30 29     -151.9865083069     0.0000000005   0.000000013   0.000000001          45839      30818

 SCF IS UNCONVERGED, TOO MANY ITERATIONS
     TIME TO FORM FOCK OPERATORS=       1.0 SECONDS (       0.0 SEC/ITER)
     FOCK TIME ON FIRST ITERATION=       0.1, LAST ITERATION=       0.0
     TIME TO SOLVE SCF EQUATIONS=       0.0 SECONDS (       0.0 SEC/ITER)

 FINAL ROHF ENERGY IS        0.0000000000 AFTER  30 ITERATIONS

          --------------------
          SPIN SZ   =    0.000
          S-SQUARED =    0.000
          --------------------

          ------------
          EIGENVECTORS
          ------------

                      1          2          3          4          5
                  -20.5602   -20.5588    -1.3733    -1.2711    -0.7374
                     A          A          A          A          A   
    1  O  1  S   -0.000140   0.551580  -0.000417  -0.115908  -0.001102
    2  O  1  S   -0.000117   0.471571  -0.000658  -0.192979  -0.001950
    3  O  1  X    0.000001  -0.000014   0.000065  -0.000129  -0.001093
    4  O  1  Y   -0.000003   0.001032   0.000172   0.011877  -0.006461
    5  O  1  Z    0.000001   0.001500   0.000077   0.016907   0.001313
    6  O  1  S    0.000002   0.005424   0.002197   0.550058   0.005093
    7  O  1  X   -0.000002   0.000005  -0.000099  -0.000154  -0.001107
    8  O  1  Y    0.000010  -0.000393   0.000331   0.030260  -0.010502
    9  O  1  Z   -0.000004  -0.000575   0.000083   0.043254   0.002903
   10  O  1  S   -0.000043   0.000213  -0.000345   0.474297   0.011255
   11  O  1  X    0.000003  -0.000002   0.000391  -0.000677  -0.002636
   12  O  1  Y   -0.000022   0.000164  -0.000596   0.025619  -0.005884
   13  O  1  Z    0.000008   0.000244   0.000437   0.035987   0.000259
   14  O  1 XX    0.000007  -0.000071   0.000101  -0.008983  -0.000203
   15  O  1 YY    0.000007  -0.000333   0.000137   0.010175  -0.001129
   16  O  1 ZZ    0.000007  -0.000308   0.000171   0.007279   0.000410
   17  O  1 XY    0.000000   0.000001   0.000009  -0.000064  -0.000091
   18  O  1 XZ    0.000000  -0.000000   0.000003   0.000014  -0.000065
   19  O  1 YZ   -0.000000   0.000065  -0.000012  -0.004596  -0.000503
   20  H  2  S    0.000006   0.000141   0.000387   0.072157  -0.005594
   21  H  2  S   -0.000021  -0.000054   0.001426   0.040013  -0.010467
   22  H  2  S    0.000077   0.000030   0.002596  -0.003213  -0.010739
   23  H  3  S   -0.000001   0.000142   0.000337   0.072886   0.003215
   24  H  3  S    0.000004  -0.000052  -0.000377   0.040892   0.005408
   25  H  3  S   -0.000020   0.000019   0.000198   0.000901   0.001435
   26  O  4  S    0.551454   0.000139  -0.113505   0.000524   0.017482
   27  O  4  S    0.471394   0.000119  -0.188103   0.000857   0.029985
   28  O  4  X    0.000192   0.000000   0.008158  -0.000271   0.040131
   29  O  4  Y    0.001225   0.000001   0.044942  -0.000635   0.206426
   30  O  4  Z    0.001374   0.000001   0.012393  -0.000131  -0.085262
   31  O  4  S    0.006301   0.000001   0.536850  -0.002469  -0.078721
   32  O  4  X   -0.000053  -0.000000   0.015346   0.000061   0.064058
   33  O  4  Y   -0.000344   0.000000   0.084901  -0.000293   0.330353
   34  O  4  Z   -0.000527  -0.000002   0.034065   0.000068  -0.150499
   35  O  4  S    0.000268   0.000003   0.428213  -0.003435  -0.174683
   36  O  4  X    0.000039   0.000002   0.005849  -0.001461   0.042491
   37  O  4  Y    0.000205   0.000003   0.037964  -0.003323   0.210550
   38  O  4  Z    0.000227   0.000002   0.030407  -0.000493  -0.105760
   39  O  4 XX   -0.000356  -0.000000  -0.008985   0.000029  -0.001249
   40  O  4 YY   -0.000393  -0.000000   0.020553  -0.000253   0.034659
   41  O  4 ZZ   -0.000583  -0.000001   0.004097   0.000042  -0.028383
   42  O  4 XY   -0.000011  -0.000000   0.006757  -0.000035   0.007713
   43  O  4 XZ    0.000014   0.000000  -0.000674  -0.000007   0.002080
   44  O  4 YZ    0.000076   0.000000  -0.003072  -0.000023   0.009571
   45  H  5  S    0.000315   0.000001   0.131966  -0.000971   0.166762
   46  H  5  S   -0.000276  -0.000006   0.038485   0.002135   0.184928
   47  H  5  S    0.000100   0.000007  -0.001131  -0.000724   0.037377
   48  H  6  S    0.000137  -0.000004   0.061068   0.000086  -0.127041
   49  H  6  S   -0.000023   0.000014   0.031121  -0.002101  -0.159198
   50  H  6  S   -0.000030  -0.000021  -0.002719   0.003921  -0.052808

                      6          7          8          9         10
                   -0.6349    -0.5719    -0.5283    -0.5151    -0.4816
                     A          A          A          A          A   
    1  O  1  S   -0.000544  -0.001811   0.033954   0.004806  -0.000210
    2  O  1  S   -0.000972  -0.003392   0.059594   0.008287  -0.000399
    3  O  1  X   -0.000278  -0.002015   0.000165  -0.000919   0.296355
    4  O  1  Y    0.173268   0.004537   0.142264   0.027463   0.000447
    5  O  1  Z   -0.120893  -0.013885   0.199676   0.028137  -0.000425
    6  O  1  S    0.002414   0.007928  -0.189782  -0.028606   0.001062
    7  O  1  X   -0.000238  -0.001983   0.000424  -0.001257   0.438172
    8  O  1  Y    0.287482   0.006812   0.214547   0.040969   0.000347
    9  O  1  Z   -0.200934  -0.021191   0.302134   0.042729  -0.000501
   10  O  1  S    0.008123   0.026874  -0.227751  -0.021252   0.003075
   11  O  1  X   -0.001053  -0.005110   0.000048  -0.001709   0.486657
   12  O  1  Y    0.224232   0.011525   0.229000   0.049654   0.001131
   13  O  1  Z   -0.153728  -0.021653   0.316307   0.044522  -0.001079
   14  O  1 XX   -0.000207  -0.000581  -0.011526  -0.002602  -0.000304
   15  O  1 YY    0.029166   0.000280   0.010297   0.001824  -0.000028
   16  O  1 ZZ   -0.029483  -0.003067   0.016324   0.001089  -0.000087
   17  O  1 XY   -0.000136  -0.000091  -0.000054  -0.000054   0.009606
   18  O  1 XZ    0.000060  -0.000072  -0.000099  -0.000058   0.013938
   19  O  1 YZ    0.012176   0.000320   0.009267   0.001755   0.000040
   20  H  2  S    0.137181   0.002516   0.086517   0.016069  -0.000197
   21  H  2  S    0.184472   0.005309   0.116017   0.017332   0.003923
   22  H  2  S    0.065486  -0.032068   0.046869  -0.010427  -0.010450
   23  H  3  S   -0.138033  -0.010377   0.088303   0.010524  -0.000315
   24  H  3  S   -0.193079  -0.015780   0.121038   0.012689   0.000229
   25  H  3  S   -0.071435   0.001247   0.060968   0.012668   0.001148
   26  O  4  S   -0.000197   0.034655   0.002550  -0.000372   0.000609
   27  O  4  S   -0.000400   0.060479   0.004446  -0.000570   0.001081
   28  O  4  X   -0.004446   0.023743  -0.040724   0.284241   0.001334
   29  O  4  Y    0.003688   0.121316   0.017843  -0.054244   0.001986
   30  O  4  Z   -0.013046   0.217471   0.006716   0.000299   0.000563
   31  O  4  S    0.001924  -0.188578  -0.013141   0.003059  -0.002728
   32  O  4  X   -0.006375   0.035085  -0.060812   0.428341   0.002608
   33  O  4  Y    0.007060   0.176997   0.027414  -0.081554   0.004725
   34  O  4  Z   -0.021192   0.339230   0.010576   0.000950   0.001872
   35  O  4  S   -0.002678  -0.236873  -0.023393  -0.003937  -0.011448
   36  O  4  X   -0.008466   0.036651  -0.069363   0.471572   0.000082
   37  O  4  Y   -0.000777   0.186793   0.023109  -0.091052  -0.004922
   38  O  4  Z   -0.018880   0.339995   0.010590  -0.000509  -0.000074
   39  O  4 XX    0.000463  -0.012015  -0.001122   0.005436   0.000056
   40  O  4 YY    0.001178   0.005339   0.001869  -0.005234   0.000196
   41  O  4 ZZ   -0.002095   0.019222   0.000266   0.000692   0.000270
   42  O  4 XY    0.000001   0.003652  -0.002064   0.016779   0.000103
   43  O  4 XZ   -0.000206   0.002166  -0.001746   0.012556   0.000058
   44  O  4 YZ   -0.000120   0.013572   0.001104  -0.002415   0.000082
   45  H  5  S    0.003624   0.058770   0.005688  -0.000068   0.001229
   46  H  5  S    0.008725   0.048146   0.012153   0.003840   0.010388
   47  H  5  S    0.001538   0.004207  -0.004154  -0.003584  -0.004670
   48  H  6  S   -0.010198   0.110389   0.002602   0.000607   0.001163
   49  H  6  S   -0.013786   0.143995  -0.004907  -0.000993  -0.009097
   50  H  6  S   -0.004323   0.079594   0.019408   0.005832   0.019924

                     11         12         13         14         15
                    0.1105     0.1561     0.2064     0.2277     0.4892
                     A          A          A          A          A   
    1  O  1  S    0.020374   0.026676   0.009462   0.010169   0.011981
    2  O  1  S    0.037946   0.050258   0.017993   0.018349   0.020914
    3  O  1  X   -0.004880   0.003823   0.005447   0.001864   0.008742
    4  O  1  Y   -0.039631  -0.004833  -0.022674  -0.130126   0.029315
    5  O  1  Z   -0.055525  -0.087061  -0.008429   0.061414  -0.055321
    6  O  1  S   -0.079639  -0.101869  -0.034686  -0.046128  -0.058829
    7  O  1  X   -0.008695   0.008140   0.010492   0.005011   0.025184
    8  O  1  Y   -0.065121  -0.013676  -0.023295  -0.163150   0.051186
    9  O  1  Z   -0.079590  -0.117962  -0.012211   0.070017  -0.073758
   10  O  1  S   -0.464108  -0.653239  -0.252022  -0.205218  -0.219219
   11  O  1  X   -0.004411   0.000717   0.003286  -0.001681  -0.016458
   12  O  1  Y   -0.093526   0.002397  -0.105408  -0.490674   0.160059
   13  O  1  Z   -0.157171  -0.291549  -0.040277   0.247925  -0.358079
   14  O  1 XX    0.013534   0.018567   0.006823   0.003420  -0.002634
   15  O  1 YY    0.011400   0.019306   0.006756   0.000313  -0.001404
   16  O  1 ZZ    0.009784   0.013455   0.006438   0.005946   0.005969
   17  O  1 XY    0.000528  -0.000347  -0.000573  -0.000068  -0.000969
   18  O  1 XZ    0.000085   0.000041  -0.000185   0.000013  -0.000125
   19  O  1 YZ   -0.003005  -0.003658  -0.002253  -0.003011  -0.007324
   20  H  2  S    0.029029   0.034197   0.022734   0.060963  -0.001316
   21  H  2  S    0.034824   0.045127   0.013404   0.001937  -0.265556
   22  H  2  S    0.325256   0.242241   0.427098   1.417739   0.501773
   23  H  3  S    0.032196   0.056277   0.013371  -0.026916   0.067301
   24  H  3  S   -0.024237   0.014930   0.075468   0.066475   0.951705
   25  H  3  S    0.531839   0.956520  -0.007888  -1.057164  -0.635545
   26  O  4  S    0.027153  -0.020254   0.007957  -0.000750   0.018331
   27  O  4  S    0.050779  -0.038657   0.015343  -0.003296   0.030877
   28  O  4  X    0.008292   0.008059  -0.008724   0.025437   0.012889
   29  O  4  Y    0.009303   0.019613  -0.078490   0.034765   0.037269
   30  O  4  Z   -0.075473   0.056004   0.083081   0.022736  -0.089407
   31  O  4  S   -0.105549   0.070877  -0.029024  -0.018068  -0.094849
   32  O  4  X    0.011929   0.014436  -0.006753   0.041948   0.022927
   33  O  4  Y    0.002253   0.038109  -0.092181   0.052771   0.057268
   34  O  4  Z   -0.106178   0.086441   0.095762   0.038137  -0.131302
   35  O  4  S   -0.654948   0.569744  -0.264132   0.211031  -0.242529
   36  O  4  X    0.013851   0.011544  -0.057625   0.042757   0.039789
   37  O  4  Y    0.024388   0.027716  -0.346527   0.073431   0.186821
   38  O  4  Z   -0.248671   0.166544   0.347450   0.045717  -0.561128
   39  O  4 XX    0.018576  -0.017802   0.009974  -0.009527  -0.010532
   40  O  4 YY    0.015471  -0.009914  -0.004145  -0.001511  -0.005127
   41  O  4 ZZ    0.012971  -0.016070   0.011387  -0.012974   0.005651
   42  O  4 XY    0.000479   0.002793  -0.001721   0.006082   0.002654
   43  O  4 XZ   -0.000333   0.000859   0.000969   0.001674  -0.002423
   44  O  4 YZ   -0.003868   0.004061   0.004013   0.003724  -0.014738
   45  H  5  S    0.021346  -0.010212   0.014876   0.009824  -0.000323
   46  H  5  S    0.021540   0.070650  -0.123678   0.070599  -0.025668
   47  H  5  S    0.287677  -0.594255   1.644254  -0.434191   0.137241
   48  H  6  S    0.047203  -0.041236  -0.041088  -0.019024   0.106277
   49  H  6  S   -0.003680  -0.051511   0.016607  -0.017300   1.545039
   50  H  6  S    0.848108  -0.478782  -1.281662  -0.103893  -1.047797

                     16         17         18         19         20
                    0.5265     0.5363     0.6601     0.9896     1.0007
                     A          A          A          A          A   
    1  O  1  S    0.001761   0.023817  -0.004294   0.004903  -0.014080
    2  O  1  S    0.002543   0.040622  -0.006524   0.006316  -0.018309
    3  O  1  X   -0.005265  -0.004816  -0.008512  -0.020174  -0.165674
    4  O  1  Y    0.081754  -0.076265   0.013942  -0.019598   0.039631
    5  O  1  Z   -0.077983  -0.068871  -0.010913   0.007816  -0.025161
    6  O  1  S   -0.009792  -0.111297   0.037530  -0.057075   0.163706
    7  O  1  X   -0.014986  -0.014640  -0.031319  -0.070671  -0.575008
    8  O  1  Y    0.108196  -0.111581   0.019630  -0.069662   0.140475
    9  O  1  Z   -0.118703  -0.110692  -0.022940   0.029850  -0.090859
   10  O  1  S   -0.003297  -0.388037  -0.006361   0.090630  -0.248679
   11  O  1  X    0.009885   0.011252   0.034360   0.095328   0.777405
   12  O  1  Y    0.518565  -0.470635   0.031130   0.111366  -0.246607
   13  O  1  Z   -0.431152  -0.360903  -0.029287  -0.040071   0.113482
   14  O  1 XX   -0.002864  -0.014115   0.004242  -0.009899   0.026595
   15  O  1 YY   -0.013398   0.012925   0.002081  -0.011409   0.033796
   16  O  1 ZZ    0.010641  -0.004864   0.006259  -0.008671   0.023920
   17  O  1 XY    0.000584   0.000460   0.000240  -0.000310  -0.002041
   18  O  1 XZ    0.000207   0.000069  -0.000182  -0.000451  -0.003418
   19  O  1 YZ   -0.006379  -0.013833  -0.000991  -0.000732   0.000634
   20  H  2  S   -0.073944   0.103590  -0.024646   0.010060  -0.017481
   21  H  2  S   -0.896905   1.621491   0.047552  -0.061737   0.219533
   22  H  2  S    0.598967  -1.123259  -0.176596   0.023959  -0.165432
   23  H  3  S    0.086265   0.062729   0.009805   0.002999  -0.004375
   24  H  3  S    1.235830   0.972028   0.096805   0.004021  -0.004151
   25  H  3  S   -0.907179  -0.448727  -0.022172  -0.005573   0.040459
   26  O  4  S   -0.009233  -0.006181   0.022840   0.004470   0.012523
   27  O  4  S   -0.015944  -0.010618   0.041849   0.007098   0.018899
   28  O  4  X    0.000127  -0.008939  -0.023374  -0.216673   0.073000
   29  O  4  Y   -0.006561  -0.012513  -0.096530   0.088323   0.101140
   30  O  4  Z    0.055497   0.002426  -0.008261   0.040635   0.096499
   31  O  4  S    0.038091   0.036109  -0.086748  -0.029560  -0.095654
   32  O  4  X   -0.008384  -0.007125  -0.043322  -0.754085   0.258954
   33  O  4  Y   -0.022303  -0.012070  -0.147529   0.312227   0.370025
   34  O  4  Z    0.083259  -0.006702  -0.029523   0.150290   0.352578
   35  O  4  S    0.263298   0.047291  -1.509142  -0.048753  -0.075276
   36  O  4  X    0.028723  -0.037456  -0.264258   1.020820  -0.372458
   37  O  4  Y    0.053272  -0.056393  -1.461050  -0.448195  -0.587420
   38  O  4  Z    0.335168   0.112768   0.017373  -0.228216  -0.524494
   39  O  4 XX    0.005404   0.002914  -0.002038  -0.008812  -0.019248
   40  O  4 YY    0.003298  -0.001112   0.025874   0.002533  -0.005589
   41  O  4 ZZ   -0.008907   0.000456  -0.004334  -0.000420  -0.008066
   42  O  4 XY    0.000344  -0.003254   0.005651  -0.006739   0.004618
   43  O  4 XZ    0.002359   0.000136  -0.001971  -0.004038   0.001033
   44  O  4 YZ    0.011720   0.002079  -0.009398   0.000965   0.001067
   45  H  5  S    0.003285  -0.007443   0.079879   0.016382   0.040519
   46  H  5  S   -0.187915  -0.010857   2.781814   0.005358   0.034946
   47  H  5  S   -0.143133  -0.069513  -0.714727   0.094034   0.211620
   48  H  6  S   -0.072029  -0.015536  -0.004889   0.010362   0.017807
   49  H  6  S   -0.971627  -0.388109   0.146202   0.074259   0.134869
   50  H  6  S    0.714381   0.458513   0.070190  -0.049352  -0.075163

                     21         22         23         24         25
                    1.0335     1.0467     1.1326     1.1925     1.2930
                     A          A          A          A          A   
    1  O  1  S    0.023736  -0.021439  -0.009475  -0.028222  -0.033947
    2  O  1  S    0.032250  -0.032286  -0.012909  -0.035399  -0.042817
    3  O  1  X   -0.164812  -0.056082   0.001450   0.013063  -0.004891
    4  O  1  Y   -0.000806  -0.151138   0.048205  -0.156233  -0.002822
    5  O  1  Z    0.088168  -0.156141  -0.043981   0.142932   0.025024
    6  O  1  S   -0.260289   0.193756   0.110058   0.368092   0.457823
    7  O  1  X   -0.565153  -0.191660   0.002304   0.041652  -0.015782
    8  O  1  Y   -0.002675  -0.550145   0.170154  -0.598036  -0.001535
    9  O  1  Z    0.319413  -0.568984  -0.168248   0.545824   0.092103
   10  O  1  S    0.309398  -0.026508  -0.170799  -0.694527  -0.905280
   11  O  1  X    0.776516   0.265394  -0.000763  -0.061278   0.025220
   12  O  1  Y    0.053398   0.860375  -0.309891   1.095658  -0.059400
   13  O  1  Z   -0.456326   0.869147   0.292408  -1.093702  -0.251136
   14  O  1 XX   -0.043442   0.038272   0.020086   0.056835   0.070644
   15  O  1 YY   -0.045875   0.010582   0.020284   0.044713   0.084649
   16  O  1 ZZ   -0.034225   0.018736   0.010634   0.093150   0.081362
   17  O  1 XY   -0.002739  -0.001097  -0.000512   0.000540  -0.000647
   18  O  1 XZ   -0.003269  -0.001142  -0.000384   0.000193  -0.000206
   19  O  1 YZ   -0.001081   0.001536   0.002914  -0.015237  -0.005263
   20  H  2  S    0.020748  -0.015156  -0.036651   0.003359  -0.006782
   21  H  2  S   -0.160879  -0.337295   0.100524  -0.032294   0.190644
   22  H  2  S    0.146670   0.079619   0.130044  -0.578434   0.066093
   23  H  3  S    0.008941  -0.024241  -0.005866  -0.023204  -0.024878
   24  H  3  S    0.066370  -0.211008  -0.095458   0.462916   0.206022
   25  H  3  S   -0.011036   0.028213  -0.048683   0.580190   0.156560
   26  O  4  S   -0.013012  -0.006937  -0.002802  -0.009780   0.093728
   27  O  4  S   -0.019663  -0.009704  -0.005643  -0.011326   0.118125
   28  O  4  X   -0.035670  -0.013719   0.012306   0.042401  -0.014894
   29  O  4  Y   -0.085686  -0.040850   0.134086   0.069290  -0.033192
   30  O  4  Z   -0.098439  -0.029760  -0.184257  -0.006174  -0.035386
   31  O  4  S    0.103734   0.064887   0.028021   0.157516  -1.305987
   32  O  4  X   -0.128033  -0.049991   0.051368   0.153565  -0.052218
   33  O  4  Y   -0.313548  -0.153259   0.509714   0.270632  -0.125659
   34  O  4  Z   -0.350486  -0.093760  -0.699540  -0.031899  -0.135279
   35  O  4  S    0.096834  -0.003488   0.080566  -0.473414   2.856293
   36  O  4  X    0.204239   0.085682  -0.100653  -0.283573   0.161634
   37  O  4  Y    0.559888   0.289804  -0.890624  -0.624827   0.614512
   38  O  4  Z    0.515226   0.103462   1.272537   0.073361   0.453815
   39  O  4 XX    0.019498   0.010592   0.006765   0.023575  -0.195889
   40  O  4 YY    0.003843   0.002873   0.020334   0.042678  -0.246727
   41  O  4 ZZ    0.013031   0.016658  -0.029028   0.020243  -0.227485
   42  O  4 XY   -0.003599  -0.001823   0.003635   0.001342  -0.010698
   43  O  4 XZ   -0.000648  -0.000887   0.001491  -0.000017   0.003402
   44  O  4 YZ   -0.002312  -0.003967   0.007330  -0.000004   0.017299
   45  H  5  S   -0.043287  -0.025517   0.045150   0.040550  -0.072247
   46  H  5  S   -0.131705  -0.067672  -0.167819   0.162181  -0.530698
   47  H  5  S   -0.097142  -0.019937   0.748151   0.341797  -0.669773
   48  H  6  S    0.003644   0.022003   0.016823  -0.002501   0.028950
   49  H  6  S   -0.077766   0.067360  -0.376843  -0.032327  -0.546846
   50  H  6  S   -0.058059  -0.103474  -0.604990  -0.044923  -0.134745

                     26         27         28         29         30
                    1.3582     2.3896     2.3989     2.4211     2.4709
                     A          A          A          A          A   
    1  O  1  S    0.087368   0.002999  -0.000440   0.000690  -0.000121
    2  O  1  S    0.111322   0.008844  -0.009481  -0.014234  -0.004041
    3  O  1  X    0.008370   0.007936  -0.001117   0.006177  -0.003840
    4  O  1  Y   -0.080640   0.034392   0.015216   0.040271   0.084443
    5  O  1  Z   -0.017114  -0.044773   0.041702   0.073101  -0.039137
    6  O  1  S   -1.202296  -0.036561  -0.027444  -0.074407  -0.012177
    7  O  1  X    0.023777   0.010702  -0.002613   0.008554  -0.005063
    8  O  1  Y   -0.299428  -0.053394  -0.013334  -0.033326  -0.112713
    9  O  1  Z   -0.067403   0.060798  -0.034400  -0.037515   0.053862
   10  O  1  S    2.412054   0.155923  -0.079299  -0.054602  -0.050780
   11  O  1  X   -0.037450  -0.028299   0.007387  -0.023218   0.014139
   12  O  1  Y    0.747455  -0.024632  -0.046352  -0.091891  -0.189543
   13  O  1  Z    0.314327   0.083120  -0.107681  -0.224539   0.075514
   14  O  1 XX   -0.178119  -0.037646   0.070114   0.115091   0.036864
   15  O  1 YY   -0.223658  -0.106579  -0.081937  -0.180812  -0.312240
   16  O  1 ZZ   -0.204497   0.180583  -0.096116  -0.130052   0.227579
   17  O  1 XY    0.000487   0.004934  -0.002539   0.004919  -0.003334
   18  O  1 XZ    0.000169   0.001926  -0.001074   0.001940  -0.001238
   19  O  1 YZ    0.012549  -0.088671   0.073113   0.116739  -0.076617
   20  H  2  S    0.051607  -0.284695  -0.407605  -0.818179  -1.095439
   21  H  2  S   -0.518347   0.447508   0.598420   1.224313   1.701375
   22  H  2  S   -0.663179  -0.410151  -0.190596  -0.566280  -0.796329
   23  H  3  S    0.025694   0.746835  -0.585406  -0.899918   0.630394
   24  H  3  S   -0.460469  -1.101548   0.854612   1.358542  -1.009830
   25  H  3  S   -0.046640   0.494621  -0.311443  -0.493120   0.577546
   26  O  4  S    0.037464  -0.012269  -0.019901   0.006229   0.007945
   27  O  4  S    0.049709  -0.016270  -0.043746   0.018106   0.009548
   28  O  4  X    0.041794   0.028222   0.019193  -0.002188  -0.014155
   29  O  4  Y    0.046649   0.122254   0.111624  -0.019080  -0.066113
   30  O  4  Z    0.002132  -0.048692   0.053249  -0.045035   0.038797
   31  O  4  S   -0.490415   0.105624   0.148606  -0.038182  -0.094822
   32  O  4  X    0.139489   0.029620   0.032721  -0.004710  -0.001075
   33  O  4  Y    0.177695   0.109763   0.174447  -0.056888  -0.031322
   34  O  4  Z   -0.010858   0.063874  -0.042815   0.069621  -0.032282
   35  O  4  S    0.834883  -0.462170  -0.767814   0.240769   0.303218
   36  O  4  X   -0.252114  -0.128082  -0.100360  -0.011353   0.018965
   37  O  4  Y   -0.360477  -0.527607  -0.527583   0.065702   0.213533
   38  O  4  Z    0.141980   0.097385  -0.173942   0.099714  -0.107989
   39  O  4 XX   -0.072755   0.029979   0.167889  -0.093856  -0.013493
   40  O  4 YY   -0.070066  -0.238824  -0.224349   0.029891   0.122086
   41  O  4 ZZ   -0.091767   0.283667  -0.028622   0.144208  -0.174098
   42  O  4 XY   -0.005500  -0.070451  -0.091994   0.016934   0.016035
   43  O  4 XZ    0.001348  -0.015927   0.023084  -0.021343   0.008681
   44  O  4 YZ    0.008568  -0.074662   0.117673  -0.105992   0.050083
   45  H  5  S    0.016566  -0.767686  -0.930214   0.231715   0.377040
   46  H  5  S    0.015469   1.536778   1.740037  -0.357540  -0.782403
   47  H  5  S   -0.060461  -0.496765  -0.376489  -0.033806   0.292950
   48  H  6  S    0.000779   0.784092  -0.769890   0.802414  -0.524237
   49  H  6  S   -0.291677  -1.212928   1.152223  -1.251357   0.823196
   50  H  6  S    0.030137   0.637851  -0.361487   0.638949  -0.396421

                     31         32         33         34         35
                    3.1227     3.1258     3.1682     3.1835     3.1855
                     A          A          A          A          A   
    1  O  1  S    0.000803   0.000330   0.000365  -0.001082  -0.000014
    2  O  1  S    0.001583   0.000644   0.000752  -0.001462  -0.000079
    3  O  1  X    0.000422   0.000554   0.000208  -0.000265   0.000185
    4  O  1  Y   -0.002146  -0.000727  -0.001327  -0.015787   0.001113
    5  O  1  Z    0.001505   0.000727   0.000501  -0.022631   0.000850
    6  O  1  S   -0.014517  -0.006090  -0.006513   0.025355  -0.000115
    7  O  1  X    0.000128   0.000237   0.000067  -0.000067  -0.000153
    8  O  1  Y   -0.005146  -0.002122  -0.002184   0.008116  -0.000358
    9  O  1  Z    0.001536   0.000891   0.000866   0.010844  -0.000587
   10  O  1  S    0.021132   0.010306   0.009729  -0.049992   0.000736
   11  O  1  X   -0.000810  -0.001320  -0.000446   0.000499   0.000574
   12  O  1  Y    0.006098   0.002803   0.003015  -0.019960   0.000579
   13  O  1  Z   -0.005421  -0.002892  -0.002514  -0.025573   0.002210
   14  O  1 XX    0.004810   0.000591  -0.000869  -0.417500   0.022458
   15  O  1 YY   -0.016514  -0.006909  -0.008475  -0.046398   0.002708
   16  O  1 ZZ    0.010625   0.005803   0.009261   0.474362  -0.025856
   17  O  1 XY    0.001599   0.003877   0.003098   0.042047   0.811833
   18  O  1 XZ    0.000275   0.000755  -0.000336  -0.034745  -0.581312
   19  O  1 YZ    0.003414   0.002885   0.008187   0.853011  -0.046688
   20  H  2  S   -0.025659  -0.010068  -0.010043   0.044164  -0.001801
   21  H  2  S    0.057552   0.023181   0.024602  -0.016671  -0.000732
   22  H  2  S   -0.065483  -0.030662  -0.030382   0.017352   0.003075
   23  H  3  S    0.002731   0.002099   0.002486   0.043471  -0.001529
   24  H  3  S   -0.008575  -0.005015  -0.006058  -0.014656  -0.001091
   25  H  3  S    0.019015   0.009115   0.010349   0.010365   0.000072
   26  O  4  S    0.000311  -0.000340   0.000109  -0.000015   0.000044
   27  O  4  S    0.000584   0.000262   0.000282  -0.000087   0.000045
   28  O  4  X   -0.015686  -0.006789  -0.022283  -0.000101  -0.000256
   29  O  4  Y    0.010896  -0.018721   0.005963  -0.000158  -0.000672
   30  O  4  Z    0.007249  -0.032239   0.001018  -0.000179   0.000023
   31  O  4  S   -0.007394   0.019118  -0.001590   0.000134  -0.000865
   32  O  4  X    0.003678   0.000539   0.005092  -0.000252  -0.000043
   33  O  4  Y    0.001401  -0.002320  -0.000297   0.000163   0.000166
   34  O  4  Z   -0.001854   0.017857   0.000501  -0.001112  -0.000806
   35  O  4  S    0.009131  -0.053536  -0.000685  -0.000003   0.001836
   36  O  4  X   -0.010428  -0.005805  -0.011079   0.001816   0.000868
   37  O  4  Y   -0.010674  -0.014084  -0.004679   0.002216   0.002251
   38  O  4  Z    0.005597  -0.037677  -0.000532  -0.000340  -0.001000
   39  O  4 XX    0.374500  -0.334607   0.090257   0.001151   0.002672
   40  O  4 YY   -0.300750  -0.031431  -0.093850   0.003804   0.001018
   41  O  4 ZZ   -0.074717   0.379723   0.004376  -0.005669  -0.004278
   42  O  4 XY    0.853150   0.265398   0.277455  -0.008751  -0.002398
   43  O  4 XZ   -0.318372   0.104102   0.937538  -0.008159  -0.001622
   44  O  4 YZ   -0.112199   0.862464  -0.178993   0.000932   0.000234
   45  H  5  S   -0.009622   0.036695  -0.000916   0.000306   0.000984
   46  H  5  S    0.013330  -0.006193   0.005105  -0.003560  -0.003893
   47  H  5  S   -0.004347   0.005883  -0.001132   0.005181   0.003166
   48  H  6  S   -0.008737   0.084620   0.003252  -0.007620  -0.006534
   49  H  6  S   -0.009715  -0.048920  -0.007785   0.018039   0.014882
   50  H  6  S    0.013047   0.034552   0.008010  -0.016138  -0.011618

                     36         37         38         39         40
                    3.2081     3.4241     3.4336     3.5962     4.0581
                     A          A          A          A          A   
    1  O  1  S   -0.000088  -0.008987  -0.000019   0.000528   0.001478
    2  O  1  S   -0.000169  -0.015097  -0.000128   0.001173   0.004073
    3  O  1  X   -0.022470  -0.000078   0.001794   0.000636   0.003317
    4  O  1  Y    0.000115  -0.008073   0.001760   0.014359  -0.010738
    5  O  1  Z   -0.000342  -0.012613   0.001547  -0.009486   0.001164
    6  O  1  S    0.001684   0.205800  -0.000060  -0.010112  -0.026995
    7  O  1  X    0.004570  -0.000026   0.000270  -0.000122  -0.001912
    8  O  1  Y    0.000213   0.040436   0.000200  -0.112384   0.001710
    9  O  1  Z   -0.000044   0.056839   0.000026   0.077668   0.000515
   10  O  1  S   -0.003109  -0.372945   0.002265   0.014734   0.040385
   11  O  1  X   -0.007409   0.000393  -0.003355  -0.000678  -0.000752
   12  O  1  Y   -0.000924  -0.119105  -0.003453   0.268512   0.024249
   13  O  1  Z    0.001359  -0.167289  -0.005629  -0.188115  -0.000310
   14  O  1 XX   -0.001804   0.915297   0.007440  -0.004447   0.000164
   15  O  1 YY   -0.000018  -0.548321  -0.006572   0.798714   0.009272
   16  O  1 ZZ    0.001998  -0.322424  -0.002051  -0.793698   0.002567
   17  O  1 XY    0.582149   0.000170  -0.004748  -0.000017   0.000509
   18  O  1 XZ    0.812731   0.000006  -0.002148   0.000089   0.000709
   19  O  1 YZ    0.002939   0.392536  -0.000167   0.322338   0.000206
   20  H  2  S    0.001151   0.345469  -0.001517  -0.516373  -0.000721
   21  H  2  S   -0.002281  -0.076191   0.009024   0.269679  -0.002843
   22  H  2  S    0.005604   0.072625  -0.015056  -0.210096  -0.054169
   23  H  3  S    0.001340   0.345529  -0.003620   0.499810   0.006687
   24  H  3  S   -0.003018  -0.066441   0.012901  -0.245464  -0.019965
   25  H  3  S    0.001202   0.055446  -0.008569   0.184268   0.028713
   26  O  4  S    0.000050  -0.000194  -0.005733   0.000619   0.013587
   27  O  4  S    0.000036  -0.000467  -0.008358   0.001445   0.037888
   28  O  4  X   -0.000257  -0.002345  -0.002804   0.004104  -0.048424
   29  O  4  Y   -0.000323  -0.002274  -0.021544   0.002401  -0.279220
   30  O  4  Z   -0.000025  -0.001288  -0.020381   0.003021   0.000972
   31  O  4  S   -0.000949   0.002903   0.165179  -0.010831  -0.049222
   32  O  4  X   -0.000014  -0.000680  -0.005637   0.001260   0.025334
   33  O  4  Y    0.000451  -0.001089  -0.028065   0.002378   0.142959
   34  O  4  Z   -0.001282  -0.000612   0.091972   0.000399  -0.033368
   35  O  4  S    0.001196   0.000917  -0.397692   0.012804  -0.358883
   36  O  4  X    0.000956   0.007028  -0.006629  -0.014024  -0.082688
   37  O  4  Y    0.001760   0.010542  -0.032470  -0.017005  -0.414022
   38  O  4  Z   -0.001575   0.004492  -0.242079  -0.006379   0.096310
   39  O  4 XX    0.004411  -0.005882   0.787321   0.003404   0.451010
   40  O  4 YY    0.002042  -0.000921  -0.046923   0.001850  -0.942361
   41  O  4 ZZ   -0.007305   0.005974  -0.691601  -0.003273   0.644084
   42  O  4 XY   -0.002760  -0.005146  -0.189976   0.010072  -0.313224
   43  O  4 XZ   -0.000731  -0.001744   0.088713   0.002249  -0.000458
   44  O  4 YZ    0.001261  -0.003535   0.442505   0.002765  -0.001327
   45  H  5  S    0.001001  -0.000061   0.117502   0.002287   1.026907
   46  H  5  S   -0.004816  -0.004186   0.099975  -0.001862  -0.427001
   47  H  5  S    0.006551  -0.003425  -0.019487   0.006961   0.384393
   48  H  6  S   -0.010165  -0.001781   0.559523   0.000806  -0.228490
   49  H  6  S    0.024205  -0.000504  -0.191067  -0.003654   0.161896
   50  H  6  S   -0.019769  -0.004653   0.149772   0.011539  -0.162182

                     41         42         43         44         45
                    5.2992     5.3200     5.3687     5.3766     5.4612
                     A          A          A          A          A   
    1  O  1  S    0.003046   0.000289  -0.006020   0.003342  -0.002524
    2  O  1  S    0.010422   0.000977  -0.021480   0.011413  -0.008754
    3  O  1  X    0.084019  -1.255824  -0.017822  -0.152875   0.022178
    4  O  1  Y   -0.158204   0.003972  -0.716145  -0.231303  -1.005671
    5  O  1  Z    0.018224   0.023087  -1.044517   0.070222   0.722221
    6  O  1  S   -0.048768  -0.005618   0.128116  -0.053583   0.040435
    7  O  1  X   -0.090216   1.358326   0.019636   0.168563  -0.025206
    8  O  1  Y    0.166131  -0.004461   0.782250   0.250078   1.135364
    9  O  1  Z   -0.018274  -0.024761   1.140194  -0.075917  -0.814369
   10  O  1  S    0.016642   0.006645  -0.212241   0.013959  -0.009551
   11  O  1  X    0.033553  -0.519331  -0.008085  -0.069061   0.011574
   12  O  1  Y   -0.060707   0.002565  -0.354678  -0.114540  -0.605230
   13  O  1  Z    0.008005   0.009856  -0.518612   0.033369   0.436785
   14  O  1 XX    0.018058   0.001533  -0.017391   0.021960  -0.016800
   15  O  1 YY    0.019616   0.001467  -0.034274   0.018163  -0.024854
   16  O  1 ZZ    0.017179   0.001256  -0.039691   0.019865  -0.005186
   17  O  1 XY    0.000321  -0.007116  -0.000160  -0.001513   0.000591
   18  O  1 XZ    0.000637  -0.010153  -0.000121  -0.001474   0.000271
   19  O  1 YZ   -0.000803   0.000188  -0.007886  -0.000676  -0.004400
   20  H  2  S   -0.025691  -0.000069  -0.116678  -0.048542  -0.113012
   21  H  2  S    0.037885   0.000393   0.205530   0.087111   0.134735
   22  H  2  S   -0.046620  -0.006226   0.004683  -0.061209   0.213349
   23  H  3  S    0.011218   0.002138  -0.123168   0.015490   0.130173
   24  H  3  S   -0.016440  -0.001701   0.217360  -0.013177  -0.177082
   25  H  3  S    0.008567  -0.002438   0.001169  -0.012563  -0.167418
   26  O  4  S    0.000855   0.001445  -0.001575  -0.006700  -0.006048
   27  O  4  S    0.002919   0.005057  -0.005391  -0.023070  -0.021047
   28  O  4  X   -1.226677  -0.060691   0.072390  -0.088221   0.117329
   29  O  4  Y    0.265962   0.078705  -0.031533  -0.181856  -0.174260
   30  O  4  Z    0.068870   0.149354   0.077390  -1.225041   0.250473
   31  O  4  S   -0.012679  -0.020179   0.021585   0.117807   0.079018
   32  O  4  X    1.325010   0.065718  -0.080354   0.098528  -0.134862
   33  O  4  Y   -0.287392  -0.087232   0.033645   0.203818   0.197534
   34  O  4  Z   -0.073296  -0.160158  -0.083339   1.351625  -0.284536
   35  O  4  S    0.006253   0.008794   0.011836  -0.181256   0.051133
   36  O  4  X   -0.512265  -0.029302   0.034896  -0.038484   0.075330
   37  O  4  Y    0.097960   0.017044  -0.007244  -0.063337  -0.044443
   38  O  4  Z    0.034031   0.076323   0.041175  -0.648686   0.147029
   39  O  4 XX    0.004020   0.014133  -0.013601  -0.041972  -0.058331
   40  O  4 YY   -0.001182  -0.009986  -0.003522   0.006625   0.000858
   41  O  4 ZZ    0.010741   0.020859  -0.012094  -0.066575  -0.059576
   42  O  4 XY   -0.015310  -0.006154   0.002516   0.011554   0.010538
   43  O  4 XZ   -0.008944  -0.000213   0.000386  -0.002507   0.000316
   44  O  4 YZ    0.002810   0.002028  -0.000292  -0.013657  -0.000730
   45  H  5  S    0.019403   0.034990  -0.013837  -0.112564  -0.080358
   46  H  5  S   -0.010041  -0.017767   0.007429   0.178288   0.018983
   47  H  5  S    0.003195   0.001287  -0.011893  -0.119097   0.021859
   48  H  6  S    0.013469   0.030493   0.026309  -0.143860   0.038311
   49  H  6  S   -0.030159  -0.064985  -0.048647   0.220439  -0.030251
   50  H  6  S    0.015183   0.028788   0.026978   0.131534  -0.077152

                     46         47         48         49         50
                    5.6724     6.4372     6.5122    56.7490    56.8002
                     A          A          A          A          A   
    1  O  1  S    0.010859  -0.181064  -0.018842  -2.289188  -0.365892
    2  O  1  S    0.038830  -0.687324  -0.071743   2.658462   0.425303
    3  O  1  X   -0.044158  -0.005898   0.003184   0.000237  -0.000094
    4  O  1  Y    0.174590   0.045878   0.020062  -0.003696  -0.001599
    5  O  1  Z   -0.087569   0.030551   0.001126  -0.004182  -0.000476
    6  O  1  S   -0.173853   2.595854   0.267723  -1.065692  -0.170287
    7  O  1  X    0.052725   0.008517  -0.004717  -0.000652   0.000285
    8  O  1  Y   -0.214458  -0.080913  -0.032313   0.011542   0.004992
    9  O  1  Z    0.107475  -0.061737  -0.002696   0.012983   0.001414
   10  O  1  S    0.044064   1.233325   0.139785  -0.315056  -0.055475
   11  O  1  X   -0.026193  -0.006408   0.003921   0.000913  -0.000499
   12  O  1  Y    0.155870   0.139835   0.033296  -0.029876  -0.009077
   13  O  1  Z   -0.074498   0.142933   0.013505  -0.035845  -0.005288
   14  O  1 XX    0.071948  -1.522385  -0.161085   0.520171   0.084466
   15  O  1 YY    0.076441  -1.469424  -0.155203   0.513862   0.083576
   16  O  1 ZZ    0.069485  -1.480778  -0.155695   0.515122   0.083391
   17  O  1 XY   -0.000404  -0.000432   0.000438   0.000047  -0.000056
   18  O  1 XZ   -0.000167  -0.000133   0.000158   0.000018  -0.000020
   19  O  1 YZ    0.001642  -0.016475  -0.001833   0.002100   0.000405
   20  H  2  S    0.016461   0.027215  -0.005397  -0.001852   0.001944
   21  H  2  S   -0.009798  -0.117698   0.007952   0.024620  -0.002559
   22  H  2  S   -0.167393  -0.210069  -0.053906   0.052986   0.020714
   23  H  3  S   -0.014056   0.034551   0.010567  -0.003345  -0.002002
   24  H  3  S    0.009882  -0.139389  -0.034915   0.028962   0.009727
   25  H  3  S    0.080829  -0.118499   0.015749   0.036922  -0.002263
   26  O  4  S   -0.032582   0.016900  -0.177780   0.365785  -2.290170
   27  O  4  S   -0.114174   0.064881  -0.680500  -0.424809   2.662081
   28  O  4  X   -0.274857  -0.046012   0.035547   0.002016  -0.001410
   29  O  4  Y   -1.182126  -0.088954   0.207555   0.003781  -0.009620
   30  O  4  Z    0.188123  -0.017175   0.010508   0.001493  -0.003269
   31  O  4  S    0.433818  -0.246295   2.570441   0.170593  -1.072896
   32  O  4  X    0.336868   0.067815  -0.055948  -0.005733   0.003822
   33  O  4  Y    1.448413   0.133293  -0.327493  -0.010752   0.026490
   34  O  4  Z   -0.224565   0.027779  -0.033412  -0.004564   0.010491
   35  O  4  S   -0.002785  -0.168572   1.388161   0.062154  -0.357134
   36  O  4  X   -0.172380  -0.062079   0.047583   0.010707  -0.007007
   37  O  4  Y   -0.710173  -0.138475   0.286022   0.025388  -0.047807
   38  O  4  Z    0.166674  -0.023763   0.123513   0.007616  -0.033640
   39  O  4 XX   -0.320362   0.136821  -1.471487  -0.082618   0.523274
   40  O  4 YY    0.022646   0.156547  -1.600339  -0.083185   0.533753
   41  O  4 ZZ   -0.333708   0.133767  -1.417157  -0.082245   0.516740
   42  O  4 XY    0.080889   0.008235  -0.028253  -0.000622   0.002193
   43  O  4 XZ   -0.003766   0.000103  -0.002116  -0.000059   0.000335
   44  O  4 YZ   -0.020012  -0.000813  -0.010703  -0.000075   0.001735
   45  H  5  S   -0.620757  -0.072650   0.371162   0.009087  -0.049786
   46  H  5  S    0.574339   0.134220  -0.481992  -0.026937   0.085087
   47  H  5  S    0.046338   0.014527  -0.173188  -0.006645   0.053050
   48  H  6  S    0.113377   0.012191   0.014439  -0.001990  -0.003593
   49  H  6  S   -0.148986  -0.035083  -0.147743   0.006121   0.037704
   50  H  6  S   -0.085980   0.067673  -0.076184  -0.021304   0.023602
 ...... END OF ROHF CALCULATION ......
 STEP CPU TIME =     1.03 TOTAL CPU TIME =          1.1 (      0.0 MIN)
 TOTAL WALL CLOCK TIME=          1.1 SECONDS, CPU UTILIZATION IS    99.69%

     ----------------------------------------------------------------
     PROPERTY VALUES FOR THE ROHF  SELF-CONSISTENT FIELD WAVEFUNCTION
     ----------------------------------------------------------------

          -----------------
          ENERGY COMPONENTS
          -----------------

         WAVEFUNCTION NORMALIZATION =       1.0000000000

                ONE ELECTRON ENERGY =    -272.4100393900
                TWO ELECTRON ENERGY =     240.9589635265
           NUCLEAR REPULSION ENERGY =      31.4510758634
                                      ------------------
                       TOTAL ENERGY =       0.0000000000

 ELECTRON-ELECTRON POTENTIAL ENERGY =     240.9589635265
  NUCLEUS-ELECTRON POTENTIAL ENERGY =    -424.1739750569
   NUCLEUS-NUCLEUS POTENTIAL ENERGY =      31.4510758634
                                      ------------------
             TOTAL POTENTIAL ENERGY =    -151.7639356669
               TOTAL KINETIC ENERGY =     151.7639356669
                 VIRIAL RATIO (V/T) =       1.0000000000

          ---------------------------------------
          MULLIKEN AND LOWDIN POPULATION ANALYSES
          ---------------------------------------

     ATOMIC MULLIKEN POPULATION IN EACH MOLECULAR ORBITAL

                      1          2          3          4          5

                  2.000000   2.000000   2.000000   2.000000   2.000000

    1             0.000000   2.000002   0.000011   1.831429   0.001363
    2             0.000001  -0.000001   0.000356   0.080944   0.003143
    3            -0.000000  -0.000002   0.000002   0.087371   0.000201
    4             2.000020   0.000000   1.748082   0.000098   1.357313
    5            -0.000017   0.000000   0.193422  -0.000012   0.325185
    6            -0.000004  -0.000000   0.058127   0.000170   0.312795

                      6          7          8          9         10

                  2.000000   2.000000   2.000000   2.000000   2.000000

    1             1.266006   0.006221   1.662152   0.042168   1.999137
    2             0.354856   0.003014   0.137823   0.003414   0.000030
    3             0.371532   0.001861   0.149559   0.002095  -0.000001
    4             0.005775   1.735795   0.048426   1.952260   0.000148
    5             0.000272   0.030420   0.000384  -0.000001   0.000041
    6             0.001558   0.222689   0.001656   0.000065   0.000645

     ATOMIC SPIN POPULATION (ALPHA MINUS BETA)
       ATOM         MULL.POP.                    LOW.POP.
    1 O             0.000000                     0.000000
    2 H             0.000000                     0.000000
    3 H             0.000000                     0.000000
    4 O             0.000000                     0.000000
    5 H             0.000000                     0.000000
    6 H             0.000000                     0.000000

               ----- POPULATIONS IN EACH AO -----
                             MULLIKEN      LOWDIN
              1  O  1  S      1.08378     1.03252
              2  O  1  S      0.91186     0.93181
              3  O  1  X      0.39151     0.39697
              4  O  1  Y      0.24495     0.24804
              5  O  1  Z      0.26240     0.26496
              6  O  1  S      0.99568     0.59172
              7  O  1  X      0.80960     0.83640
              8  O  1  Y      0.60145     0.57794
              9  O  1  Z      0.61869     0.60577
             10  O  1  S      0.92430     0.53193
             11  O  1  X      0.79764     0.76553
             12  O  1  Y      0.54856     0.55937
             13  O  1  Z      0.59974     0.60491
             14  O  1 XX     -0.00760     0.20898
             15  O  1 YY      0.01514     0.22294
             16  O  1 ZZ      0.00928     0.21797
             17  O  1 XY      0.00019     0.00019
             18  O  1 XZ      0.00039     0.00039
             19  O  1 YZ      0.00095     0.00109
             20  H  2  S      0.21663     0.21884
             21  H  2  S      0.31143     0.33811
             22  H  2  S      0.05552     0.13930
             23  H  3  S      0.22051     0.22322
             24  H  3  S      0.32754     0.34862
             25  H  3  S      0.06456     0.13860
             26  O  4  S      1.08349     1.03215
             27  O  4  S      0.91186     0.93188
             28  O  4  X      0.38180     0.38860
             29  O  4  Y      0.29883     0.30267
             30  O  4  Z      0.26095     0.26481
             31  O  4  S      0.98383     0.57137
             32  O  4  X      0.81010     0.83210
             33  O  4  Y      0.70399     0.66783
             34  O  4  Z      0.62931     0.61343
             35  O  4  S      0.89375     0.48011
             36  O  4  X      0.78512     0.75673
             37  O  4  Y      0.46899     0.51082
             38  O  4  Z      0.60383     0.60418
             39  O  4 XX     -0.00667     0.19663
             40  O  4 YY      0.02654     0.22553
             41  O  4 ZZ      0.00998     0.20710
             42  O  4 XY      0.00148     0.00152
             43  O  4 XZ      0.00034     0.00034
             44  O  4 YZ      0.00040     0.00058
             45  H  5  S      0.32918     0.32293
             46  H  5  S      0.21470     0.29504
             47  H  5  S      0.00582     0.09161
             48  H  6  S      0.21885     0.22019
             49  H  6  S      0.31177     0.34144
             50  H  6  S      0.06708     0.13431

          ----- MULLIKEN ATOMIC OVERLAP POPULATIONS -----
          (OFF-DIAGONAL ELEMENTS NEED TO BE MULTIPLIED BY 2)

             1           2           3           4           5

    1    8.3331723
    2    0.2376893   0.3603180
    3    0.2368376  -0.0205587   0.3961221
    4   -0.0002543   0.0073793  -0.0000956   8.3272204
    5   -0.0000277  -0.0002690  -0.0000081   0.2598005   0.3183122
    6    0.0010706  -0.0009786   0.0003211   0.2538671  -0.0281130

             6

    6    0.3715336

          TOTAL MULLIKEN AND LOWDIN ATOMIC POPULATIONS
       ATOM         MULL.POP.    CHARGE          LOW.POP.     CHARGE
    1 O             8.808488   -0.808488         8.599428   -0.599428
    2 H             0.583580    0.416420         0.696247    0.303753
    3 H             0.612619    0.387381         0.710438    0.289562
    4 O             8.847917   -0.847917         8.588378   -0.588378
    5 H             0.549695    0.450305         0.709573    0.290427
    6 H             0.597701    0.402299         0.695936    0.304064

          -------------------------------
          BOND ORDER AND VALENCE ANALYSIS     BOND ORDER THRESHOLD=0.050
          -------------------------------

                   BOND                       BOND                       BOND
  ATOM PAIR DIST  ORDER      ATOM PAIR DIST  ORDER      ATOM PAIR DIST  ORDER
    1   2  1.100  0.787        1   3  1.100  0.818        4   5  0.826  0.753
    4   6  1.100  0.810

                       TOTAL       BONDED        FREE
      ATOM            VALENCE     VALENCE     VALENCE
    1 O                 1.609       1.609      -0.000
    2 H                 0.811       0.811       0.000
    3 H                 0.827       0.827      -0.000
    4 O                 1.578       1.578      -0.000
    5 H                 0.758       0.758       0.000
    6 H                 0.819       0.819      -0.000

          -----------------------------------------
          ATOMIC SPIN DENSITY AT THE NUCLEUS (A.U.)
          -----------------------------------------
                            SPIN DENS    ALPHA DENS     BETA DENS
    1  O            8.0     0.0000000     147.60643     147.60643
    2  H            1.0     0.0000000       0.16346       0.16346
    3  H            1.0     0.0000000       0.16678       0.16678
    4  O            8.0    -0.0000000     147.44757     147.44757
    5  H            1.0     0.0000000       0.27805       0.27805
    6  H            1.0     0.0000000       0.16511       0.16511

          ---------------------
          ELECTROSTATIC MOMENTS
          ---------------------

 POINT   1           X           Y           Z (BOHR)    CHARGE
                -0.517819    3.320529    0.358200       -0.00 (A.U.)
         DX          DY          DZ         /D/  (DEBYE)
     0.286172    2.742132    3.758548    4.661316
 ...... END OF PROPERTY EVALUATION ......
 STEP CPU TIME =     0.01 TOTAL CPU TIME =          1.1 (      0.0 MIN)
 TOTAL WALL CLOCK TIME=          1.1 SECONDS, CPU UTILIZATION IS    99.70%

     --------------------------------------------
     PARTIAL TWO ELECTRON INTEGRAL TRANSFORMATION
     --------------------------------------------

 NUMBER OF CORE MOLECULAR ORBITALS     =    0
 NUMBER OF OCCUPIED MOLECULAR ORBITALS =   50
 TOTAL NUMBER OF MOLECULAR ORBITALS    =   50
 TOTAL NUMBER OF ATOMIC ORBITALS       =   50
 THRESHOLD FOR KEEPING TRANSFORMED 2E- INTEGRALS = 1.000E-12
 AO INTEGRALS WILL BE CALCULATED IN DIRECT MODE...

 PLAN A: REQUIREMENTS FOR FULLY IN-MEMORY TRANSFORMATION:
 # OF WORDS AVAILABLE =               999999
 # OF WORDS NEEDED    =              3306004

 PLAN B: REQUIREMENTS FOR THE SEGMENTED TRANSFORMATION:
       MINIMUM=         182254 WORDS FOR 1 MOLECULAR ORBITAL PER PASS
       MAXIMUM=        3306004 WORDS FOR ALL MOLECULAR ORBITALS IN 1 PASS
              (          63750 EXTRA WORDS INCLUDES 1 EXTRA ORBITAL/PASS)
 THIS RUN USES=         947254 WORDS,
 DISTRIBUTING   4 PASSES EACH CONTAINING    13 ORBITALS OVER   1 PROCESSORS.

 CHOOSING SEGMENTED PARTIAL TRANSFORMATION...
 DIRECT TRANSFORMATION SKIPS AO INTEGRAL STORAGE ON DISK.
 PASS #   1 TOOK        0.11 SECONDS.
 DIRECT TRANSFORMATION SKIPS AO INTEGRAL STORAGE ON DISK.
 PASS #   2 TOOK        0.12 SECONDS.
 DIRECT TRANSFORMATION SKIPS AO INTEGRAL STORAGE ON DISK.
 PASS #   3 TOOK        0.13 SECONDS.
 DIRECT TRANSFORMATION SKIPS AO INTEGRAL STORAGE ON DISK.
 PASS #   4 TOOK        0.11 SECONDS.
 TOTAL NUMBER OF TRANSFORMED 2E- INTEGRALS KEPT =       813450
 ... END OF INTEGRAL TRANSFORMATION ...
 STEP CPU TIME =     0.48 TOTAL CPU TIME =          1.6 (      0.0 MIN)
 TOTAL WALL CLOCK TIME=          1.6 SECONDS, CPU UTILIZATION IS    99.79%

     --------------------------------------------------
          FCIDUMP INTEGRAL FILE GENERATION
          WRITTEN BY J. EMILIANO DEUSTUA
     --------------------------------------------------
    WRITING INTEGRALS FROM SERIAL TRANSFORMATION

               991354  WORDS OF DYNAMIC MEMORY USED
 EXECUTION OF GAMESS TERMINATED NORMALLY 14:15:13 12-OCT-2023    
 DDI: 263640 bytes (0.3 MB / 0 MWords) used by master data server.

 ----------------------------------------
 CPU timing information for all processes
 ========================================
 0: 4.246 + 0.145 = 4.391
 ----------------------------------------
 ddikick.x: exited gracefully.
----- accounting info -----
Files used on the parent node coupled.cem.msu.edu were:
-rw-r--r-- 1 gururang piecuch     490 Oct 12 14:15 /scratch/gururang/h2o.F05
-rw-r--r-- 1 gururang piecuch 9911088 Oct 12 14:15 /scratch/gururang/h2o.F09
-rw-r--r-- 1 gururang piecuch 1897760 Oct 12 14:15 /scratch/gururang/h2o.F10
Thu Oct 12 14:15:14 EDT 2023
0.192u 0.081s 0:05.70 4.7%	0+0k 0+8io 0pf+0w
